<VTKFile type="UnstructuredGrid" version="0.1" byte_order="LittleEndian">
   <UnstructuredGrid>
      <Piece  NumberOfPoints="280"  NumberOfCells="121">
         <Points>
            <DataArray type="Float32" NumberOfComponents="3" format="ascii">
7.818305e-02 4.484972e-02 3.414747e-02
4.484972e-02 7.818305e-02 3.414747e-02
1.634836e-01 9.681695e-02 1.471446e-01
9.681695e-02 1.634836e-01 1.471446e-01
1.853006e-01 5.196723e-02 8.936399e-02
2.269672e-01 1.936339e-01 3.738308e-01
5.196723e-02 1.853006e-01 8.936399e-02
1.936339e-01 2.269672e-01 3.738308e-01
2.706011e-01 1.039345e-01 2.409972e-01
3.122678e-01 2.456011e-01 5.794742e-01
1.039345e-01 2.706011e-01 2.409972e-01
2.456011e-01 3.122678e-01 5.794742e-01
2.853006e-01 5.196723e-02 1.269436e-01
3.340847e-01 2.007514e-01 5.113841e-01
3.571175e-01 3.237842e-01 7.663692e-01
5.196723e-02 2.853006e-01 1.269436e-01
2.007514e-01 3.340847e-01 5.113841e-01
3.237842e-01 3.571175e-01 7.663692e-01
3.634836e-01 9.681695e-02 2.723671e-01
4.007514e-01 2.340847e-01 6.385353e-01
4.122678e-01 3.456011e-01 8.512585e-01
9.681695e-02 3.634836e-01 2.723671e-01
2.340847e-01 4.007514e-01 6.385353e-01
3.456011e-01 4.122678e-01 8.512585e-01
3.781831e-01 4.484972e-02 1.302748e-01
4.154508e-01 1.821175e-01 5.224438e-01
4.340847e-01 3.007514e-01 7.930886e-01
4.269672e-01 3.936339e-01 9.199301e-01
4.484972e-02 3.781831e-01 1.302748e-01
1.821175e-01 4.154508e-01 5.224438e-01
3.007514e-01 4.340847e-01 7.930886e-01
3.936339e-01 4.269672e-01 9.199301e-01
4.448497e-01 7.818305e-02 2.395165e-01
4.634836e-01 1.968169e-01 5.758558e-01
4.706011e-01 3.039345e-01 8.127415e-01
4.634836e-01 3.968169e-01 9.416881e-01
7.818305e-02 4.448497e-01 2.395165e-01
1.968169e-01 4.634836e-01 5.758558e-01
3.039345e-01 4.706011e-01 8.127415e-01
3.968169e-01 4.634836e-01 9.416881e-01
4.666667e-01 3.333333e-02 1.039558e-01
4.781831e-01 1.448497e-01 4.384832e-01
4.853006e-01 2.519672e-01 7.107049e-01
4.853006e-01 3.519672e-01 8.928424e-01
4.781831e-01 4.448497e-01 9.827153e-01
3.333333e-02 4.666667e-01 1.039558e-01
1.448497e-01 4.781831e-01 4.384832e-01
2.519672e-01 4.853006e-01 7.107049e-01
3.519672e-01 4.853006e-01 8.928424e-01
4.448497e-01 4.781831e-01 9.827153e-01
5.218169e-01 5.515028e-02 1.719894e-01
5.146994e-01 1.480328e-01 4.479971e-01
5.146994e-01 2.480328e-01 7.019740e-01
5.218169e-01 3.551503e-01 8.961262e-01
5.333333e-01 4.666667e-01 9.890738e-01
5.515028e-02 5.218169e-01 1.719894e-01
1.480328e-01 5.146994e-01 4.479971e-01
2.480328e-01 5.146994e-01 7.019740e-01
3.551503e-01 5.218169e-01 8.961262e-01
4.666667e-01 5.333333e-01 9.890738e-01
5.551503e-01 2.181695e-02 6.746094e-02
5.365164e-01 1.031831e-01 3.164182e-01
5.293989e-01 1.960655e-01 5.752784e-01
5.365164e-01 3.031831e-01 8.094981e-01
5.551503e-01 4.218169e-01 9.554643e-01
5.781831e-01 5.448497e-01 9.603744e-01
2.181695e-02 5.551503e-01 6.746094e-02
1.031831e-01 5.365164e-01 3.164182e-01
1.960655e-01 5.293989e-01 5.752784e-01
3.031831e-01 5.365164e-01 8.094981e-01
4.218169e-01 5.551503e-01 9.554643e-01
5.448497e-01 5.781831e-01 9.603744e-01
6.031831e-01 3.651638e-02 1.085065e-01
5.730328e-01 1.063661e-01 3.193799e-01
5.659153e-01 1.992486e-01 5.733570e-01
5.845492e-01 3.178825e-01 8.112600e-01
6.218169e-01 4.551503e-01 9.184670e-01
6.634836e-01 5.968169e-01 8.310030e-01
3.651638e-02 6.031831e-01 1.085065e-01
1.063661e-01 5.730328e-01 3.193799e-01
1.992486e-01 5.659153e-01 5.733570e-01
3.178825e-01 5.845492e-01 8.112600e-01
4.551503e-01 6.218169e-01 9.184670e-01
5.968169e-01 6.634836e-01 8.310030e-01
6.480328e-01 1.469943e-02 4.126047e-02
6.063661e-01 7.303277e-02 2.148514e-01
5.877322e-01 1.543989e-01 4.486619e-01
5.992486e-01 2.659153e-01 7.058075e-01
6.365164e-01 4.031831e-01 8.676887e-01
6.853006e-01 5.519672e-01 8.241815e-01
7.269672e-01 6.936339e-01 6.206911e-01
1.469943e-02 6.480328e-01 4.126047e-02
7.303277e-02 6.063661e-01 2.148514e-01
1.543989e-01 5.877322e-01 4.486619e-01
2.659153e-01 5.992486e-01 7.058075e-01
4.031831e-01 6.365164e-01 8.676887e-01
5.519672e-01 6.853006e-01 8.241815e-01
6.936339e-01 7.269672e-01 6.206911e-01
6.960655e-01 2.939887e-02 7.527838e-02
6.543989e-01 8.773220e-02 2.407502e-01
6.428825e-01 1.762158e-01 4.736676e-01
6.659153e-01 2.992486e-01 7.003770e-01
7.146994e-01 4.480328e-01 7.706350e-01
7.706011e-01 6.039345e-01 6.250282e-01
8.122678e-01 7.456011e-01 3.986734e-01
2.939887e-02 6.960655e-01 7.527838e-02
8.773220e-02 6.543989e-01 2.407502e-01
1.762158e-01 6.428825e-01 4.736676e-01
2.992486e-01 6.659153e-01 7.003770e-01
4.480328e-01 7.146994e-01 7.706350e-01
6.039345e-01 7.706011e-01 6.250282e-01
7.456011e-01 8.122678e-01 3.986734e-01
7.480328e-01 1.469943e-02 3.284344e-02
6.992486e-01 6.591525e-02 1.666204e-01
6.762158e-01 1.428825e-01 3.691391e-01
6.877322e-01 2.543989e-01 5.957157e-01
7.293989e-01 3.960655e-01 7.116601e-01
7.853006e-01 5.519672e-01 6.162012e-01
8.340847e-01 7.007514e-01 4.021614e-01
8.571175e-01 8.237842e-01 2.281527e-01
1.469943e-02 7.480328e-01 3.284344e-02
6.591525e-02 6.992486e-01 1.666204e-01
1.428825e-01 6.762158e-01 3.691391e-01
2.543989e-01 6.877322e-01 5.957157e-01
3.960655e-01 7.293989e-01 7.116601e-01
5.519672e-01 7.853006e-01 6.162012e-01
7.007514e-01 8.340847e-01 4.021614e-01
8.237842e-01 8.571175e-01 2.281527e-01
8.031831e-01 3.651638e-02 6.635328e-02
7.659153e-01 9.924858e-02 2.058075e-01
7.543989e-01 1.877322e-01 3.878040e-01
7.730328e-01 3.063661e-01 5.367898e-01
8.146994e-01 4.480328e-01 5.425008e-01
8.634836e-01 5.968169e-01 3.967635e-01
9.007514e-01 7.340847e-01 2.274901e-01
9.122678e-01 8.456011e-01 1.268891e-01
3.651638e-02 8.031831e-01 6.635328e-02
9.924858e-02 7.659153e-01 2.058075e-01
1.877322e-01 7.543989e-01 3.878040e-01
3.063661e-01 7.730328e-01 5.367898e-01
4.480328e-01 8.146994e-01 5.425008e-01
5.968169e-01 8.634836e-01 3.967635e-01
7.340847e-01 9.007514e-01 2.274901e-01
8.456011e-01 9.122678e-01 1.268891e-01
8.551503e-01 2.181695e-02 3.010077e-02
8.178825e-01 8.454915e-02 1.421294e-01
7.992486e-01 1.659153e-01 2.936403e-01
8.063661e-01 2.730328e-01 4.322613e-01
8.365164e-01 4.031831e-01 4.687632e-01
8.781831e-01 5.448497e-01 3.697252e-01
9.154508e-01 6.821175e-01 2.207010e-01
9.340847e-01 8.007514e-01 1.204569e-01
9.269672e-01 8.936339e-01 7.459178e-02
2.181695e-02 8.551503e-01 3.010077e-02
8.454915e-02 8.178825e-01 1.421294e-01
1.659153e-01 7.992486e-01 2.936403e-01
2.730328e-01 8.063661e-01 4.322613e-01
4.031831e-01 8.365164e-01 4.687632e-01
5.448497e-01 8.781831e-01 3.697252e-01
6.821175e-01 9.154508e-01 2.207010e-01
8.007514e-01 9.340847e-01 1.204569e-01
8.936339e-01 9.269672e-01 7.459178e-02
9.218169e-01 5.515028e-02 4.191887e-02
9.031831e-01 1.365164e-01 1.245439e-01
8.960655e-01 2.293989e-01 2.116601e-01
9.031831e-01 3.365164e-01 2.608515e-01
9.218169e-01 4.551503e-01 2.407474e-01
9.448497e-01 5.781831e-01 1.672201e-01
9.634836e-01 6.968169e-01 9.327484e-02
9.706011e-01 8.039345e-01 5.328388e-02
9.634836e-01 8.968169e-01 3.645945e-02
5.515028e-02 9.218169e-01 4.191887e-02
1.365164e-01 9.031831e-01 1.245439e-01
2.293989e-01 8.960655e-01 2.116601e-01
3.365164e-01 9.031831e-01 2.608515e-01
4.551503e-01 9.218169e-01 2.407474e-01
5.781831e-01 9.448497e-01 1.672201e-01
6.968169e-01 9.634836e-01 9.327484e-02
8.039345e-01 9.706011e-01 5.328388e-02
8.968169e-01 9.634836e-01 3.645945e-02
9.666667e-01 3.333333e-02 1.092620e-02
9.551503e-01 1.218169e-01 5.244160e-02
9.480328e-01 2.146994e-01 1.015044e-01
9.480328e-01 3.146994e-01 1.357641e-01
9.551503e-01 4.218169e-01 1.362189e-01
9.666667e-01 5.333333e-01 1.039558e-01
9.781831e-01 6.448497e-01 6.151682e-02
9.853006e-01 7.519672e-01 3.243997e-02
9.853006e-01 8.519672e-01 2.070306e-02
9.781831e-01 9.448497e-01 1.180664e-02
3.333333e-02 9.666667e-01 1.092620e-02
1.218169e-01 9.551503e-01 5.244160e-02
2.146994e-01 9.480328e-01 1.015044e-01
3.146994e-01 9.480328e-01 1.357641e-01
4.218169e-01 9.551503e-01 1.362189e-01
5.333333e-01 9.666667e-01 1.039558e-01
6.448497e-01 9.781831e-01 6.151682e-02
7.519672e-01 9.853006e-01 3.243997e-02
8.519672e-01 9.853006e-01 2.070306e-02
9.448497e-01 9.781831e-01 1.180664e-02
5.000000e-02 0.000000e+00 0.000000e+00
0.000000e+00 5.000000e-02 0.000000e+00
1.500000e-01 0.000000e+00 0.000000e+00
0.000000e+00 1.500000e-01 0.000000e+00
2.500000e-01 0.000000e+00 0.000000e+00
0.000000e+00 2.500000e-01 0.000000e+00
3.500000e-01 0.000000e+00 0.000000e+00
0.000000e+00 3.500000e-01 0.000000e+00
4.500000e-01 0.000000e+00 0.000000e+00
0.000000e+00 4.500000e-01 0.000000e+00
5.500000e-01 0.000000e+00 0.000000e+00
0.000000e+00 5.500000e-01 0.000000e+00
6.500000e-01 0.000000e+00 0.000000e+00
0.000000e+00 6.500000e-01 0.000000e+00
7.500000e-01 0.000000e+00 0.000000e+00
0.000000e+00 7.500000e-01 0.000000e+00
8.500000e-01 0.000000e+00 0.000000e+00
0.000000e+00 8.500000e-01 0.000000e+00
9.500000e-01 0.000000e+00 0.000000e+00
1.000000e+00 5.000000e-02 1.915770e-17
1.000000e+00 1.500000e-01 5.559780e-17
1.000000e+00 2.500000e-01 8.659561e-17
1.000000e+00 3.500000e-01 1.091168e-16
1.000000e+00 4.500000e-01 1.209569e-16
1.000000e+00 5.500000e-01 1.209569e-16
1.000000e+00 6.500000e-01 1.091168e-16
1.000000e+00 7.500000e-01 8.659561e-17
1.000000e+00 8.500000e-01 5.559780e-17
1.000000e+00 9.500000e-01 1.915770e-17
5.000000e-02 1.000000e+00 1.915770e-17
0.000000e+00 9.500000e-01 0.000000e+00
1.500000e-01 1.000000e+00 5.559780e-17
2.500000e-01 1.000000e+00 8.659561e-17
3.500000e-01 1.000000e+00 1.091168e-16
4.500000e-01 1.000000e+00 1.209569e-16
5.500000e-01 1.000000e+00 1.209569e-16
6.500000e-01 1.000000e+00 1.091168e-16
7.500000e-01 1.000000e+00 8.659561e-17
8.500000e-01 1.000000e+00 5.559780e-17
9.500000e-01 1.000000e+00 1.915770e-17
1.000000e-01 0.000000e+00 0.000000e+00
0.000000e+00 0.000000e+00 0.000000e+00
2.000000e-01 0.000000e+00 0.000000e+00
0.000000e+00 1.000000e-01 0.000000e+00
3.000000e-01 0.000000e+00 0.000000e+00
0.000000e+00 2.000000e-01 0.000000e+00
4.000000e-01 0.000000e+00 0.000000e+00
0.000000e+00 3.000000e-01 0.000000e+00
5.000000e-01 0.000000e+00 0.000000e+00
0.000000e+00 4.000000e-01 0.000000e+00
6.000000e-01 0.000000e+00 0.000000e+00
0.000000e+00 5.000000e-01 0.000000e+00
7.000000e-01 0.000000e+00 0.000000e+00
0.000000e+00 6.000000e-01 0.000000e+00
8.000000e-01 0.000000e+00 0.000000e+00
0.000000e+00 7.000000e-01 0.000000e+00
9.000000e-01 0.000000e+00 0.000000e+00
0.000000e+00 8.000000e-01 0.000000e+00
1.000000e+00 0.000000e+00 0.000000e+00
1.000000e+00 1.000000e-01 3.784367e-17
1.000000e+00 2.000000e-01 7.198293e-17
1.000000e+00 3.000000e-01 9.907601e-17
1.000000e+00 4.000000e-01 1.164708e-16
1.000000e+00 5.000000e-01 1.224647e-16
1.000000e+00 6.000000e-01 1.164708e-16
1.000000e+00 7.000000e-01 9.907601e-17
1.000000e+00 8.000000e-01 7.198293e-17
1.000000e+00 9.000000e-01 3.784367e-17
1.000000e+00 1.000000e+00 1.499760e-32
0.000000e+00 1.000000e+00 0.000000e+00
0.000000e+00 9.000000e-01 0.000000e+00
1.000000e-01 1.000000e+00 3.784367e-17
2.000000e-01 1.000000e+00 7.198293e-17
3.000000e-01 1.000000e+00 9.907601e-17
4.000000e-01 1.000000e+00 1.164708e-16
5.000000e-01 1.000000e+00 1.224647e-16
6.000000e-01 1.000000e+00 1.164708e-16
7.000000e-01 1.000000e+00 9.907601e-17
8.000000e-01 1.000000e+00 7.198293e-17
9.000000e-01 1.000000e+00 3.784367e-17
            </DataArray>
         </Points>
         <PointData Scalars="count">
            <DataArray type="Float64" Name="solution" format="ascii">
3.414747e-02 3.414747e-02 1.471446e-01 1.471446e-01 8.936399e-02 3.738308e-01 8.936399e-02 3.738308e-01 2.409972e-01 5.794742e-01 2.409972e-01 5.794742e-01 1.269436e-01 5.113841e-01 7.663692e-01 1.269436e-01 5.113841e-01 7.663692e-01 2.723671e-01 6.385353e-01 8.512585e-01 2.723671e-01 6.385353e-01 8.512585e-01 1.302748e-01 5.224438e-01 7.930886e-01 9.199301e-01 1.302748e-01 5.224438e-01 7.930886e-01 9.199301e-01 2.395165e-01 5.758558e-01 8.127415e-01 9.416881e-01 2.395165e-01 5.758558e-01 8.127415e-01 9.416881e-01 1.039558e-01 4.384832e-01 7.107049e-01 8.928424e-01 9.827153e-01 1.039558e-01 4.384832e-01 7.107049e-01 8.928424e-01 9.827153e-01 1.719894e-01 4.479971e-01 7.019740e-01 8.961262e-01 9.890738e-01 1.719894e-01 4.479971e-01 7.019740e-01 8.961262e-01 9.890738e-01 6.746094e-02 3.164182e-01 5.752784e-01 8.094981e-01 9.554643e-01 9.603744e-01 6.746094e-02 3.164182e-01 5.752784e-01 8.094981e-01 9.554643e-01 9.603744e-01 1.085065e-01 3.193799e-01 5.733570e-01 8.112600e-01 9.184670e-01 8.310030e-01 1.085065e-01 3.193799e-01 5.733570e-01 8.112600e-01 9.184670e-01 8.310030e-01 4.126047e-02 2.148514e-01 4.486619e-01 7.058075e-01 8.676887e-01 8.241815e-01 6.206911e-01 4.126047e-02 2.148514e-01 4.486619e-01 7.058075e-01 8.676887e-01 8.241815e-01 6.206911e-01 7.527838e-02 2.407502e-01 4.736676e-01 7.003770e-01 7.706350e-01 6.250282e-01 3.986734e-01 7.527838e-02 2.407502e-01 4.736676e-01 7.003770e-01 7.706350e-01 6.250282e-01 3.986734e-01 3.284344e-02 1.666204e-01 3.691391e-01 5.957157e-01 7.116601e-01 6.162012e-01 4.021614e-01 2.281527e-01 3.284344e-02 1.666204e-01 3.691391e-01 5.957157e-01 7.116601e-01 6.162012e-01 4.021614e-01 2.281527e-01 6.635328e-02 2.058075e-01 3.878040e-01 5.367898e-01 5.425008e-01 3.967635e-01 2.274901e-01 1.268891e-01 6.635328e-02 2.058075e-01 3.878040e-01 5.367898e-01 5.425008e-01 3.967635e-01 2.274901e-01 1.268891e-01 3.010077e-02 1.421294e-01 2.936403e-01 4.322613e-01 4.687632e-01 3.697252e-01 2.207010e-01 1.204569e-01 7.459178e-02 3.010077e-02 1.421294e-01 2.936403e-01 4.322613e-01 4.687632e-01 3.697252e-01 2.207010e-01 1.204569e-01 7.459178e-02 4.191887e-02 1.245439e-01 2.116601e-01 2.608515e-01 2.407474e-01 1.672201e-01 9.327484e-02 5.328388e-02 3.645945e-02 4.191887e-02 1.245439e-01 2.116601e-01 2.608515e-01 2.407474e-01 1.672201e-01 9.327484e-02 5.328388e-02 3.645945e-02 1.092620e-02 5.244160e-02 1.015044e-01 1.357641e-01 1.362189e-01 1.039558e-01 6.151682e-02 3.243997e-02 2.070306e-02 1.180664e-02 1.092620e-02 5.244160e-02 1.015044e-01 1.357641e-01 1.362189e-01 1.039558e-01 6.151682e-02 3.243997e-02 2.070306e-02 1.180664e-02 0.000000e+00 0.000000e+00 0.000000e+00 0.000000e+00 0.000000e+00 0.000000e+00 0.000000e+00 0.000000e+00 0.000000e+00 0.000000e+00 0.000000e+00 0.000000e+00 0.000000e+00 0.000000e+00 0.000000e+00 0.000000e+00 0.000000e+00 0.000000e+00 0.000000e+00 1.915770e-17 5.559780e-17 8.659561e-17 1.091168e-16 1.209569e-16 1.209569e-16 1.091168e-16 8.659561e-17 5.559780e-17 1.915770e-17 1.915770e-17 0.000000e+00 5.559780e-17 8.659561e-17 1.091168e-16 1.209569e-16 1.209569e-16 1.091168e-16 8.659561e-17 5.559780e-17 1.915770e-17 0.000000e+00 0.000000e+00 0.000000e+00 0.000000e+00 0.000000e+00 0.000000e+00 0.000000e+00 0.000000e+00 0.000000e+00 0.000000e+00 0.000000e+00 0.000000e+00 0.000000e+00 0.000000e+00 0.000000e+00 0.000000e+00 0.000000e+00 0.000000e+00 0.000000e+00 3.784367e-17 7.198293e-17 9.907601e-17 1.164708e-16 1.224647e-16 1.164708e-16 9.907601e-17 7.198293e-17 3.784367e-17 1.499760e-32 0.000000e+00 0.000000e+00 3.784367e-17 7.198293e-17 9.907601e-17 1.164708e-16 1.224647e-16 1.164708e-16 9.907601e-17 7.198293e-17 3.784367e-17 
            </DataArray>
         </PointData>
         <Cells>
            <DataArray type="Int32" Name="connectivity" format="ascii">
0 1 201 241 200 
4 2 0 200 240 202 
0 2 5 7 3 1 
1 3 6 203 243 201 
12 8 4 202 242 204 
2 4 8 13 9 5 
5 9 14 17 11 7 
3 7 11 16 10 6 
6 10 15 205 245 203 
24 18 12 204 244 206 
8 12 18 25 19 13 
9 13 19 26 20 14 
14 20 27 31 23 17 
11 17 23 30 22 16 
10 16 22 29 21 15 
15 21 28 207 247 205 
40 32 24 206 246 208 
18 24 32 41 33 25 
19 25 33 42 34 26 
20 26 34 43 35 27 
27 35 44 49 39 31 
23 31 39 48 38 30 
22 30 38 47 37 29 
21 29 37 46 36 28 
28 36 45 209 249 207 
60 50 40 208 248 210 
32 40 50 61 51 41 
33 41 51 62 52 42 
34 42 52 63 53 43 
35 43 53 64 54 44 
44 54 65 71 59 49 
39 49 59 70 58 48 
38 48 58 69 57 47 
37 47 57 68 56 46 
36 46 56 67 55 45 
45 55 66 211 251 209 
84 72 60 210 250 212 
50 60 72 85 73 61 
51 61 73 86 74 62 
52 62 74 87 75 63 
53 63 75 88 76 64 
54 64 76 89 77 65 
65 77 90 97 83 71 
59 71 83 96 82 70 
58 70 82 95 81 69 
57 69 81 94 80 68 
56 68 80 93 79 67 
55 67 79 92 78 66 
66 78 91 213 253 211 
112 98 84 212 252 214 
72 84 98 113 99 85 
73 85 99 114 100 86 
74 86 100 115 101 87 
75 87 101 116 102 88 
76 88 102 117 103 89 
77 89 103 118 104 90 
90 104 119 127 111 97 
83 97 111 126 110 96 
82 96 110 125 109 95 
81 95 109 124 108 94 
80 94 108 123 107 93 
79 93 107 122 106 92 
78 92 106 121 105 91 
91 105 120 215 255 213 
144 128 112 214 254 216 
98 112 128 145 129 113 
99 113 129 146 130 114 
100 114 130 147 131 115 
101 115 131 148 132 116 
102 116 132 149 133 117 
103 117 133 150 134 118 
104 118 134 151 135 119 
119 135 152 161 143 127 
111 127 143 160 142 126 
110 126 142 159 141 125 
109 125 141 158 140 124 
108 124 140 157 139 123 
107 123 139 156 138 122 
106 122 138 155 137 121 
105 121 137 154 136 120 
120 136 153 217 257 215 
180 162 144 216 256 218 
128 144 162 181 163 145 
129 145 163 182 164 146 
130 146 164 183 165 147 
131 147 165 184 166 148 
132 148 166 185 167 149 
133 149 167 186 168 150 
134 150 168 187 169 151 
135 151 169 188 170 152 
152 170 189 199 179 161 
143 161 179 198 178 160 
142 160 178 197 177 159 
141 159 177 196 176 158 
140 158 176 195 175 157 
139 157 175 194 174 156 
138 156 174 193 173 155 
137 155 173 192 172 154 
136 154 172 191 171 153 
153 171 190 230 270 217 
180 218 258 219 
181 162 180 219 259 220 
182 163 181 220 260 221 
183 164 182 221 261 222 
184 165 183 222 262 223 
185 166 184 223 263 224 
186 167 185 224 264 225 
187 168 186 225 265 226 
188 169 187 226 266 227 
189 170 188 227 267 228 
199 189 228 268 239 
198 179 199 239 279 238 
197 178 198 238 278 237 
196 177 197 237 277 236 
195 176 196 236 276 235 
194 175 195 235 275 234 
193 174 194 234 274 233 
192 173 193 233 273 232 
191 172 192 232 272 231 
190 171 191 231 271 229 
190 229 269 230 

            </DataArray>
            <DataArray type="Int32" Name="offsets" format="ascii">
5 11 17 23 29 35 41 47 53 59 65 71 77 83 89 95 101 107 113 119 125 131 137 143 149 155 161 167 173 179 185 191 197 203 209 215 221 227 233 239 245 251 257 263 269 275 281 287 293 299 305 311 317 323 329 335 341 347 353 359 365 371 377 383 389 395 401 407 413 419 425 431 437 443 449 455 461 467 473 479 485 491 497 503 509 515 521 527 533 539 545 551 557 563 569 575 581 587 593 599 603 609 615 621 627 633 639 645 651 657 662 668 674 680 686 692 698 704 710 716 720 
            </DataArray>
            <DataArray type="Int32" Name="types" format="ascii">
7 7 7 7 7 7 7 7 7 7 7 7 7 7 7 7 7 7 7 7 7 7 7 7 7 7 7 7 7 7 7 7 7 7 7 7 7 7 7 7 7 7 7 7 7 7 7 7 7 7 7 7 7 7 7 7 7 7 7 7 7 7 7 7 7 7 7 7 7 7 7 7 7 7 7 7 7 7 7 7 7 7 7 7 7 7 7 7 7 7 7 7 7 7 7 7 7 7 7 7 7 7 7 7 7 7 7 7 7 7 7 7 7 7 7 7 7 7 7 7 7 
            </DataArray>
            </Cells>
      </Piece>  
   </UnstructuredGrid>
</VTKFile>
