<VTKFile type="UnstructuredGrid" version="0.1" byte_order="LittleEndian">
   <UnstructuredGrid>
      <Piece  NumberOfPoints="3520"  NumberOfCells="1681">
         <Points>
            <DataArray type="Float32" NumberOfComponents="3" format="ascii">
1.748239e-02 9.149058e-03 1.491949e-03
9.149058e-03 1.748239e-02 1.491949e-03
3.576042e-02 1.909376e-02 6.538683e-03
1.909376e-02 3.576042e-02 6.538683e-03
4.327803e-02 9.944697e-03 4.131061e-03
4.727681e-02 3.894347e-02 1.784548e-02
9.944697e-03 4.327803e-02 4.131061e-03
3.894347e-02 4.727681e-02 1.784548e-02
6.231202e-02 2.064536e-02 1.239319e-02
6.780411e-02 5.113744e-02 3.357947e-02
2.064536e-02 6.231202e-02 1.239319e-02
5.113744e-02 6.780411e-02 3.357947e-02
6.903399e-02 1.070066e-02 7.112584e-03
7.532171e-02 4.198838e-02 3.059035e-02
8.139632e-02 7.306299e-02 5.729266e-02
1.070066e-02 6.903399e-02 7.112584e-03
4.198838e-02 7.532171e-02 3.059035e-02
7.306299e-02 8.139632e-02 5.729266e-02
8.876565e-02 2.209899e-02 1.885416e-02
9.643154e-02 5.476487e-02 5.082210e-02
1.037749e-01 8.710824e-02 8.629771e-02
2.209899e-02 8.876565e-02 1.885416e-02
5.476487e-02 9.643154e-02 5.082210e-02
8.710824e-02 1.037749e-01 8.629771e-02
9.473166e-02 1.139833e-02 1.036304e-02
1.031535e-01 4.482018e-02 4.441907e-02
1.112925e-01 7.795918e-02 8.279264e-02
1.189483e-01 1.106149e-01 1.240657e-01
1.139833e-02 9.473166e-02 1.036304e-02
4.482018e-02 1.031535e-01 4.441907e-02
7.795918e-02 1.112925e-01 8.279264e-02
1.106149e-01 1.189483e-01 1.240657e-01
1.150855e-01 2.341886e-02 2.573959e-02
1.247365e-01 5.806978e-02 6.902866e-02
1.339835e-01 9.231681e-02 1.166012e-01
1.425989e-01 1.259322e-01 1.667051e-01
2.341886e-02 1.150855e-01 2.573959e-02
5.806978e-02 1.247365e-01 6.902866e-02
9.231681e-02 1.339835e-01 1.166012e-01
1.259322e-01 1.425989e-01 1.667051e-01
1.203539e-01 1.202053e-02 1.378974e-02
1.307025e-01 4.736913e-02 5.889508e-02
1.407054e-01 8.237211e-02 1.091978e-01
1.501165e-01 1.167832e-01 1.627266e-01
1.587039e-01 1.503706e-01 2.173888e-01
1.202053e-02 1.203539e-01 1.378974e-02
4.736913e-02 1.307025e-01 5.889508e-02
8.237211e-02 1.407054e-01 1.091978e-01
1.167832e-01 1.501165e-01 1.627266e-01
1.503706e-01 1.587039e-01 2.173888e-01
1.412391e-01 2.457247e-02 3.283425e-02
1.526375e-01 6.097080e-02 8.757649e-02
1.635605e-01 9.689379e-02 1.470944e-01
1.737392e-01 1.320725e-01 2.090755e-01
1.829229e-01 1.662563e-01 2.710272e-01
2.457247e-02 1.412391e-01 3.283425e-02
6.097080e-02 1.526375e-01 8.757649e-02
9.689379e-02 1.635605e-01 1.470944e-01
1.320725e-01 1.737392e-01 2.090755e-01
1.662563e-01 1.829229e-01 2.710272e-01
1.458853e-01 1.255194e-02 1.728563e-02
1.579058e-01 4.957247e-02 7.352790e-02
1.695265e-01 8.619313e-02 1.355514e-01
1.804611e-01 1.221278e-01 2.008143e-01
1.904406e-01 1.571072e-01 2.666786e-01
1.992190e-01 1.908857e-01 3.305164e-01
1.255194e-02 1.458853e-01 1.728563e-02
4.957247e-02 1.579058e-01 7.352790e-02
8.619313e-02 1.695265e-01 1.355514e-01
1.221278e-01 1.804611e-01 2.008143e-01
1.571072e-01 1.904406e-01 2.666786e-01
1.908857e-01 1.992190e-01 3.305164e-01
1.671981e-01 2.553141e-02 3.990199e-02
1.800631e-01 6.339648e-02 1.058071e-01
1.923932e-01 1.007265e-01 1.766476e-01
2.038845e-01 1.372178e-01 2.495728e-01
2.142542e-01 1.725875e-01 3.216063e-01
2.232470e-01 2.065803e-01 3.899436e-01
2.553141e-02 1.671981e-01 3.990199e-02
6.339648e-02 1.800631e-01 1.058071e-01
1.007265e-01 1.923932e-01 1.766476e-01
1.372178e-01 2.038845e-01 2.495728e-01
1.725875e-01 2.142542e-01 3.216063e-01
2.065803e-01 2.232470e-01 3.899436e-01
1.713128e-01 1.297947e-02 2.073506e-02
1.847093e-01 5.137595e-02 8.780436e-02
1.976615e-01 8.932816e-02 1.608902e-01
2.098505e-01 1.265172e-01 2.369093e-01
2.209762e-01 1.626429e-01 3.127394e-01
2.307646e-01 1.974313e-01 3.853729e-01
2.389747e-01 2.306414e-01 4.521869e-01
1.297947e-02 1.713128e-01 2.073506e-02
5.137595e-02 1.847093e-01 8.780436e-02
8.932816e-02 1.976615e-01 1.608902e-01
1.265172e-01 2.098505e-01 2.369093e-01
1.626429e-01 2.209762e-01 3.127394e-01
1.974313e-01 2.307646e-01 3.853729e-01
2.306414e-01 2.389747e-01 4.521869e-01
1.929387e-01 2.627207e-02 4.669914e-02
2.069538e-01 6.528710e-02 1.230685e-01
2.203872e-01 1.037205e-01 2.041890e-01
2.329082e-01 1.412415e-01 2.867404e-01
2.442085e-01 1.775419e-01 3.673610e-01
2.540099e-01 2.123432e-01 4.429909e-01
2.620710e-01 2.454043e-01 5.111240e-01
2.627207e-02 1.929387e-01 4.669914e-02
6.528710e-02 2.069538e-01 1.230685e-01
1.037205e-01 2.203872e-01 2.041890e-01
1.412415e-01 2.329082e-01 2.867404e-01
1.775419e-01 2.442085e-01 3.673610e-01
2.123432e-01 2.540099e-01 4.429909e-01
2.454043e-01 2.620710e-01 5.111240e-01
1.966259e-01 1.329260e-02 2.401993e-02
2.110685e-01 5.273516e-02 1.012199e-01
2.250333e-01 9.169998e-02 1.843079e-01
2.381765e-01 1.298432e-01 2.697356e-01
2.501745e-01 1.668412e-01 3.539993e-01
2.607319e-01 2.023985e-01 4.338313e-01
2.695886e-01 2.362553e-01 5.064923e-01
2.765266e-01 2.681933e-01 5.699460e-01
1.329260e-02 1.966259e-01 2.401993e-02
5.273516e-02 2.110685e-01 1.012199e-01
9.169998e-02 2.250333e-01 1.843079e-01
1.298432e-01 2.381765e-01 2.697356e-01
1.668412e-01 2.501745e-01 3.539993e-01
2.023985e-01 2.607319e-01 4.338313e-01
2.362553e-01 2.695886e-01 5.064923e-01
2.681933e-01 2.765266e-01 5.699460e-01
2.184429e-01 2.677622e-02 5.298810e-02
2.332628e-01 6.659610e-02 1.387543e-01
2.474688e-01 1.058021e-01 2.287703e-01
2.607112e-01 1.440445e-01 3.193563e-01
2.726639e-01 1.809972e-01 4.068946e-01
2.830325e-01 2.163659e-01 4.881990e-01
2.915618e-01 2.498952e-01 5.607695e-01
2.980418e-01 2.813751e-01 6.229097e-01
2.677622e-02 2.184429e-01 5.298810e-02
6.659610e-02 2.332628e-01 1.387543e-01
1.058021e-01 2.474688e-01 2.287703e-01
1.440445e-01 2.607112e-01 3.193563e-01
1.809972e-01 2.726639e-01 4.068946e-01
2.163659e-01 2.830325e-01 4.881990e-01
2.498952e-01 2.915618e-01 5.607695e-01
2.813751e-01 2.980418e-01 6.229097e-01
2.218169e-01 1.348362e-02 2.702589e-02
2.369500e-01 5.361663e-02 1.133073e-01
2.515835e-01 9.325021e-02 2.050075e-01
2.653573e-01 1.320240e-01 2.982319e-01
2.779322e-01 1.695989e-01 3.892290e-01
2.889985e-01 2.056652e-01 4.746058e-01
2.982838e-01 2.399505e-01 5.516241e-01
3.055594e-01 2.722261e-01 6.183587e-01
3.106461e-01 3.023128e-01 6.737151e-01
1.348362e-02 2.218169e-01 2.702589e-02
5.361663e-02 2.369500e-01 1.133073e-01
9.325021e-02 2.515835e-01 2.050075e-01
1.320240e-01 2.653573e-01 2.982319e-01
1.695989e-01 2.779322e-01 3.892290e-01
2.056652e-01 2.889985e-01 4.746058e-01
2.399505e-01 2.982838e-01 5.516241e-01
2.722261e-01 3.055594e-01 6.183587e-01
3.023128e-01 3.106461e-01 6.737151e-01
2.436981e-01 2.703143e-02 5.855004e-02
2.589579e-01 6.729127e-02 1.523370e-01
2.735868e-01 1.069201e-01 2.496147e-01
2.872245e-01 1.455578e-01 3.464861e-01
2.995352e-01 1.828686e-01 4.392220e-01
3.102158e-01 2.185492e-01 5.246385e-01
3.190033e-01 2.523367e-01 6.003378e-01
3.256814e-01 2.840147e-01 6.648000e-01
3.300855e-01 3.134188e-01 7.173364e-01
2.703143e-02 2.436981e-01 5.855004e-02
6.729127e-02 2.589579e-01 1.523370e-01
1.069201e-01 2.735868e-01 2.496147e-01
1.455578e-01 2.872245e-01 3.464861e-01
1.828686e-01 2.995352e-01 4.392220e-01
2.185492e-01 3.102158e-01 5.246385e-01
2.523367e-01 3.190033e-01 6.003378e-01
2.840147e-01 3.256814e-01 6.648000e-01
3.134188e-01 3.300855e-01 7.173364e-01
2.468811e-01 1.354782e-02 2.964834e-02
2.623320e-01 5.399867e-02 1.236613e-01
2.772740e-01 9.394067e-02 2.223406e-01
2.913392e-01 1.330059e-01 3.215952e-01
3.041814e-01 1.708480e-01 4.175761e-01
3.154842e-01 2.071508e-01 5.068987e-01
3.249693e-01 2.416360e-01 5.869282e-01
3.324033e-01 2.740700e-01 6.559115e-01
3.376031e-01 3.042697e-01 7.129648e-01
3.404406e-01 3.321072e-01 7.579477e-01
1.354782e-02 2.468811e-01 2.964834e-02
5.399867e-02 2.623320e-01 1.236613e-01
9.394067e-02 2.772740e-01 2.223406e-01
1.330059e-01 2.913392e-01 3.215952e-01
1.708480e-01 3.041814e-01 4.175761e-01
2.071508e-01 3.154842e-01 5.068987e-01
2.416360e-01 3.249693e-01 5.869282e-01
2.740700e-01 3.324033e-01 6.559115e-01
3.042697e-01 3.376031e-01 7.129648e-01
3.321072e-01 3.404406e-01 7.579477e-01
2.686981e-01 2.703143e-02 6.319627e-02
2.840221e-01 6.735546e-02 1.633918e-01
2.987136e-01 1.070470e-01 2.661466e-01
3.124108e-01 1.457441e-01 3.675033e-01
3.247764e-01 1.831098e-01 4.637675e-01
3.355060e-01 2.188393e-01 5.518713e-01
3.443353e-01 2.526687e-01 6.295908e-01
3.510470e-01 2.843803e-01 6.956086e-01
3.554758e-01 3.138091e-01 7.494415e-01
3.575126e-01 3.408459e-01 7.912756e-01
2.703143e-02 2.686981e-01 6.319627e-02
6.735546e-02 2.840221e-01 1.633918e-01
1.070470e-01 2.987136e-01 2.661466e-01
1.457441e-01 3.124108e-01 3.675033e-01
1.831098e-01 3.247764e-01 4.637675e-01
2.188393e-01 3.355060e-01 5.518713e-01
2.526687e-01 3.443353e-01 6.295908e-01
2.843803e-01 3.510470e-01 6.956086e-01
3.138091e-01 3.554758e-01 7.494415e-01
3.408459e-01 3.575126e-01 7.912756e-01
2.718169e-01 1.348362e-02 3.179775e-02
2.872052e-01 5.387185e-02 1.319575e-01
3.020877e-01 9.375435e-02 2.358311e-01
3.160980e-01 1.327647e-01 3.392964e-01
3.288912e-01 1.705578e-01 4.385580e-01
3.401522e-01 2.068188e-01 5.303607e-01
3.496037e-01 2.412703e-01 6.122500e-01
3.570130e-01 2.736797e-01 6.826766e-01
3.621977e-01 3.038644e-01 7.409576e-01
3.650302e-01 3.316968e-01 7.871321e-01
3.654406e-01 3.571072e-01 8.217604e-01
1.348362e-02 2.718169e-01 3.179775e-02
5.387185e-02 2.872052e-01 1.319575e-01
9.375435e-02 3.020877e-01 2.358311e-01
1.327647e-01 3.160980e-01 3.392964e-01
1.705578e-01 3.288912e-01 4.385580e-01
2.068188e-01 3.401522e-01 5.303607e-01
2.412703e-01 3.496037e-01 6.122500e-01
2.736797e-01 3.570130e-01 6.826766e-01
3.038644e-01 3.621977e-01 7.409576e-01
3.316968e-01 3.650302e-01 7.871321e-01
3.571072e-01 3.654406e-01 8.217604e-01
2.934429e-01 2.677622e-02 6.677726e-02
3.084538e-01 6.678712e-02 1.716138e-01
3.228461e-01 1.061795e-01 2.780020e-01
3.362656e-01 1.445989e-01 3.820817e-01
3.483816e-01 1.817149e-01 4.803263e-01
3.588960e-01 2.172293e-01 5.698751e-01
3.675497e-01 2.508830e-01 6.487209e-01
3.741298e-01 2.824631e-01 7.157474e-01
[...]
         <PointData Scalars="count">
            <DataArray type="Float64" Name="solution" format="ascii">
1.491949e-03 1.491949e-03 6.538683e-03 6.538683e-03 4.131061e-03 1.784548e-02 4.131061e-03 1.784548e-02 1.239319e-02 3.357947e-02 1.239319e-02 3.357947e-02 7.112584e-03 3.059035e-02 5.729266e-02 7.112584e-03 3.059035e-02 5.729266e-02 1.885416e-02 5.082210e-02 8.629771e-02 1.885416e-02 5.082210e-02 8.629771e-02 1.036304e-02 4.441907e-02 8.279264e-02 1.240657e-01 1.036304e-02 4.441907e-02 8.279264e-02 1.240657e-01 2.573959e-02 6.902866e-02 1.166012e-01 1.667051e-01 2.573959e-02 6.902866e-02 1.166012e-01 1.667051e-01 1.378974e-02 5.889508e-02 1.091978e-01 1.627266e-01 2.173888e-01 1.378974e-02 5.889508e-02 1.091978e-01 1.627266e-01 2.173888e-01 3.283425e-02 8.757649e-02 1.470944e-01 2.090755e-01 2.710272e-01 3.283425e-02 8.757649e-02 1.470944e-01 2.090755e-01 2.710272e-01 1.728563e-02 7.352790e-02 1.355514e-01 2.008143e-01 2.666786e-01 3.305164e-01 1.728563e-02 7.352790e-02 1.355514e-01 2.008143e-01 2.666786e-01 3.305164e-01 3.990199e-02 1.058071e-01 1.766476e-01 2.495728e-01 3.216063e-01 3.899436e-01 3.990199e-02 1.058071e-01 1.766476e-01 2.495728e-01 3.216063e-01 3.899436e-01 2.073506e-02 8.780436e-02 1.608902e-01 2.369093e-01 3.127394e-01 3.853729e-01 4.521869e-01 2.073506e-02 8.780436e-02 1.608902e-01 2.369093e-01 3.127394e-01 3.853729e-01 4.521869e-01 4.669914e-02 1.230685e-01 2.041890e-01 2.867404e-01 3.673610e-01 4.429909e-01 5.111240e-01 4.669914e-02 1.230685e-01 2.041890e-01 2.867404e-01 3.673610e-01 4.429909e-01 5.111240e-01 2.401993e-02 1.012199e-01 1.843079e-01 2.697356e-01 3.539993e-01 4.338313e-01 5.064923e-01 5.699460e-01 2.401993e-02 1.012199e-01 1.843079e-01 2.697356e-01 3.539993e-01 4.338313e-01 5.064923e-01 5.699460e-01 5.298810e-02 1.387543e-01 2.287703e-01 3.193563e-01 4.068946e-01 4.881990e-01 5.607695e-01 6.229097e-01 5.298810e-02 1.387543e-01 2.287703e-01 3.193563e-01 4.068946e-01 4.881990e-01 5.607695e-01 6.229097e-01 2.702589e-02 1.133073e-01 2.050075e-01 2.982319e-01 3.892290e-01 4.746058e-01 5.516241e-01 6.183587e-01 6.737151e-01 2.702589e-02 1.133073e-01 2.050075e-01 2.982319e-01 3.892290e-01 4.746058e-01 5.516241e-01 6.183587e-01 6.737151e-01 5.855004e-02 1.523370e-01 2.496147e-01 3.464861e-01 4.392220e-01 5.246385e-01 6.003378e-01 6.648000e-01 7.173364e-01 5.855004e-02 1.523370e-01 2.496147e-01 3.464861e-01 4.392220e-01 5.246385e-01 6.003378e-01 6.648000e-01 7.173364e-01 2.964834e-02 1.236613e-01 2.223406e-01 3.215952e-01 4.175761e-01 5.068987e-01 5.869282e-01 6.559115e-01 7.129648e-01 7.579477e-01 2.964834e-02 1.236613e-01 2.223406e-01 3.215952e-01 4.175761e-01 5.068987e-01 5.869282e-01 6.559115e-01 7.129648e-01 7.579477e-01 6.319627e-02 1.633918e-01 2.661466e-01 3.675033e-01 4.637675e-01 5.518713e-01 6.295908e-01 6.956086e-01 7.494415e-01 7.912756e-01 6.319627e-02 1.633918e-01 2.661466e-01 3.675033e-01 4.637675e-01 5.518713e-01 6.295908e-01 6.956086e-01 7.494415e-01 7.912756e-01 3.179775e-02 1.319575e-01 2.358311e-01 3.392964e-01 4.385580e-01 5.303607e-01 6.122500e-01 6.826766e-01 7.409576e-01 7.871321e-01 8.217604e-01 3.179775e-02 1.319575e-01 2.358311e-01 3.392964e-01 4.385580e-01 5.303607e-01 6.122500e-01 6.826766e-01 7.409576e-01 7.871321e-01 8.217604e-01 6.677726e-02 1.716138e-01 2.780020e-01 3.820817e-01 4.803263e-01 5.698751e-01 6.487209e-01 7.157474e-01 7.706407e-01 8.137170e-01 8.457156e-01 6.677726e-02 1.716138e-01 2.780020e-01 3.820817e-01 4.803263e-01 5.698751e-01 6.487209e-01 7.157474e-01 7.706407e-01 8.137170e-01 8.457156e-01 3.340405e-02 1.379646e-01 2.451843e-01 3.510738e-01 4.520282e-01 5.450201e-01 6.278256e-01 6.991027e-01 7.583369e-01 8.056909e-01 8.418061e-01 8.676009e-01 3.340405e-02 1.379646e-01 2.451843e-01 3.510738e-01 4.520282e-01 5.450201e-01 6.278256e-01 6.991027e-01 7.583369e-01 8.056909e-01 8.418061e-01 8.676009e-01 6.918929e-02 1.768240e-01 2.850245e-01 3.901690e-01 4.890075e-01 5.789513e-01 6.582273e-01 7.258973e-01 7.817655e-01 8.262130e-01 8.600033e-01 8.840979e-01 6.918929e-02 1.768240e-01 2.850245e-01 3.901690e-01 4.890075e-01 5.789513e-01 6.582273e-01 7.258973e-01 7.817655e-01 8.262130e-01 8.600033e-01 8.840979e-01 3.441999e-02 1.415509e-01 2.502848e-01 3.569102e-01 4.581254e-01 5.512013e-01 6.341693e-01 7.058785e-01 7.659357e-01 8.145636e-01 8.524176e-01 8.804009e-01 8.995070e-01 3.441999e-02 1.415509e-01 2.502848e-01 3.569102e-01 4.581254e-01 5.512013e-01 6.341693e-01 7.058785e-01 7.659357e-01 8.145636e-01 8.524176e-01 8.804009e-01 8.995070e-01 7.037828e-02 1.789701e-01 2.872502e-01 3.919484e-01 4.901704e-01 5.796368e-01 6.588064e-01 7.268843e-01 7.837367e-01 8.297440e-01 8.656301e-01 8.922999e-01 9.107055e-01 7.037828e-02 1.789701e-01 2.872502e-01 3.919484e-01 4.901704e-01 5.796368e-01 6.588064e-01 7.268843e-01 7.837367e-01 8.297440e-01 8.656301e-01 8.922999e-01 9.107055e-01 3.482316e-02 1.426850e-01 2.511842e-01 3.570013e-01 4.572185e-01 5.494470e-01 6.319781e-01 7.038236e-01 7.646612e-01 8.147113e-01 8.545801e-01 8.850992e-01 9.071888e-01 9.217552e-01 3.482316e-02 1.426850e-01 2.511842e-01 3.570013e-01 4.572185e-01 5.494470e-01 6.319781e-01 7.038236e-01 7.646612e-01 8.147113e-01 8.545801e-01 8.850992e-01 9.071888e-01 9.217552e-01 7.034091e-02 1.781193e-01 2.848849e-01 3.877975e-01 4.843645e-01 5.726303e-01 6.512700e-01 7.195946e-01 7.774802e-01 8.252491e-01 8.635295e-01 8.931199e-01 9.148762e-01 9.296297e-01 7.034091e-02 1.781193e-01 2.848849e-01 3.877975e-01 4.843645e-01 5.726303e-01 6.512700e-01 7.195946e-01 7.774802e-01 8.252491e-01 8.635295e-01 8.931199e-01 9.148762e-01 9.296297e-01 3.461677e-02 1.414315e-01 2.480827e-01 3.517196e-01 4.498539e-01 5.404541e-01 6.220606e-01 6.938168e-01 7.554257e-01 8.070528e-01 8.492008e-01 8.825810e-01 9.079984e-01 9.262646e-01 9.381407e-01 3.461677e-02 1.414315e-01 2.480827e-01 3.517196e-01 4.498539e-01 5.404541e-01 6.220606e-01 6.938168e-01 7.554257e-01 8.070528e-01 8.492008e-01 8.825810e-01 9.079984e-01 9.262646e-01 9.381407e-01 6.912324e-02 1.744468e-01 2.782785e-01 3.782474e-01 4.722796e-01 5.587381e-01 6.364937e-01 7.049295e-01 7.638910e-01 8.135977e-01 8.545374e-01 8.873604e-01 9.127884e-01 9.315448e-01 9.443105e-01 6.912324e-02 1.744468e-01 2.782785e-01 3.782474e-01 4.722796e-01 5.587381e-01 6.364937e-01 7.049295e-01 7.638910e-01 8.135977e-01 8.545374e-01 8.873604e-01 9.127884e-01 9.315448e-01 9.443105e-01 3.382906e-02 1.379424e-01 2.413081e-01 3.415796e-01 4.367117e-01 5.250256e-01 6.052927e-01 6.767600e-01 7.391210e-01 7.924474e-01 8.370989e-01 8.736257e-01 9.026802e-01 9.249448e-01 9.410813e-01 9.517014e-01 3.382906e-02 1.379424e-01 2.413081e-01 3.415796e-01 4.367117e-01 5.250256e-01 6.052927e-01 6.767600e-01 7.391210e-01 7.924474e-01 8.370989e-01 8.736257e-01 9.026802e-01 9.249448e-01 9.410813e-01 9.517014e-01 6.681690e-02 1.682218e-01 2.678974e-01 3.639472e-01 4.547068e-01 5.388404e-01 6.153920e-01 6.837934e-01 7.438332e-01 7.955999e-01 8.394093e-01 8.757297e-01 9.051133e-01 9.281399e-01 9.453771e-01 9.573546e-01 6.681690e-02 1.682218e-01 2.678974e-01 3.639472e-01 4.547068e-01 5.388404e-01 6.153920e-01 6.837934e-01 7.438332e-01 7.955999e-01 8.394093e-01 8.757297e-01 9.051133e-01 9.281399e-01 9.453771e-01 9.573546e-01 3.251145e-02 1.324463e-01 2.312921e-01 3.272050e-01 4.185696e-01 5.040398e-01 5.825969e-01 6.535704e-01 7.166238e-01 7.717136e-01 8.190305e-01 8.589347e-01 8.918921e-01 9.184198e-01 9.390430e-01 9.542656e-01 9.645524e-01 3.251145e-02 1.324463e-01 2.312921e-01 3.272050e-01 4.185696e-01 5.040398e-01 5.825969e-01 6.535704e-01 7.166238e-01 7.717136e-01 8.190305e-01 8.589347e-01 8.918921e-01 9.184198e-01 9.390430e-01 9.542656e-01 9.645524e-01 6.355350e-02 1.597904e-01 2.542988e-01 3.456335e-01 4.325110e-01 5.138716e-01 5.889140e-01 6.571048e-01 7.181658e-01 7.720422e-01 8.188610e-01 8.588835e-01 8.924597e-01 9.199870e-01 9.418769e-01 9.585304e-01 9.703208e-01 6.355350e-02 1.597904e-01 2.542988e-01 3.456335e-01 4.325110e-01 5.138716e-01 5.889140e-01 6.571048e-01 7.181658e-01 7.720422e-01 8.188610e-01 8.588835e-01 8.924597e-01 9.199870e-01 9.418769e-01 9.585304e-01 9.703208e-01 3.073563e-02 1.252350e-01 2.185476e-01 3.093010e-01 3.962766e-01 4.784315e-01 5.549359e-01 6.251902e-01 6.888217e-01 7.456655e-01 7.957335e-01 8.391770e-01 8.762475e-01 9.072592e-01 9.325574e-01 9.524920e-01 9.673983e-01 9.775829e-01 3.073563e-02 1.252350e-01 2.185476e-01 3.093010e-01 3.962766e-01 4.784315e-01 5.549359e-01 6.251902e-01 6.888217e-01 7.456655e-01 7.957335e-01 8.391770e-01 8.762475e-01 9.072592e-01 9.325574e-01 9.524920e-01 9.673983e-01 9.775829e-01 5.949730e-02 1.495581e-01 2.381061e-01 3.241042e-01 4.066102e-01 4.848117e-01 5.580474e-01 6.258163e-01 6.877763e-01 7.437325e-01 7.936188e-01 8.374742e-01 8.754180e-01 9.076246e-01 9.343012e-01 9.556673e-01 9.719388e-01 9.833148e-01 5.949730e-02 1.495581e-01 2.381061e-01 3.241042e-01 4.066102e-01 4.848117e-01 5.580474e-01 6.258163e-01 6.877763e-01 7.437325e-01 7.936188e-01 8.374742e-01 8.754180e-01 9.076246e-01 9.343012e-01 9.556673e-01 9.719388e-01 9.833148e-01 2.858964e-02 1.166489e-01 2.036458e-01 2.886290e-01 3.707314e-01 4.491795e-01 5.233144e-01 5.926033e-01 6.566429e-01 7.151551e-01 7.679757e-01 8.150394e-01 8.563612e-01 8.920168e-01 9.221240e-01 9.468249e-01 9.662703e-01 9.806073e-01 9.899682e-01 2.858964e-02 1.166489e-01 2.036458e-01 2.886290e-01 3.707314e-01 4.491795e-01 5.233144e-01 5.926033e-01 6.566429e-01 7.151551e-01 7.679757e-01 8.150394e-01 8.563612e-01 8.920168e-01 9.221240e-01 9.468249e-01 9.662703e-01 9.806073e-01 9.899682e-01 5.483681e-02 1.379719e-01 2.199863e-01 3.001972e-01 3.779593e-01 4.526792e-01 5.238251e-01 5.909334e-01 6.536119e-01 7.115396e-01 7.644641e-01 8.121958e-01 8.546005e-01 8.915912e-01 9.231190e-01 9.491638e-01 9.697262e-01 9.848193e-01 9.944628e-01 5.483681e-02 1.379719e-01 2.199863e-01 3.001972e-01 3.779593e-01 4.526792e-01 5.238251e-01 5.909334e-01 6.536119e-01 7.115396e-01 7.644641e-01 8.121958e-01 8.546005e-01 8.915912e-01 9.231190e-01 9.491638e-01 9.697262e-01 9.848193e-01 9.944628e-01 2.617325e-02 1.070610e-01 1.871951e-01 2.659846e-01 3.428645e-01 4.172972e-01 4.887792e-01 5.568468e-01 6.210799e-01 6.811048e-01 7.365943e-01 7.872679e-01 8.328892e-01 8.732635e-01 9.082341e-01 9.376779e-01 9.615014e-01 9.796368e-01 9.920379e-01 9.986772e-01 2.617325e-02 1.070610e-01 1.871951e-01 2.659846e-01 3.428645e-01 4.172972e-01 4.887792e-01 5.568468e-01 6.210799e-01 6.811048e-01 7.365943e-01 7.872679e-01 8.328892e-01 8.732635e-01 9.082341e-01 9.376779e-01 9.615014e-01 9.796368e-01 9.920379e-01 9.986772e-01 4.977556e-02 1.255019e-01 2.006281e-01 2.747697e-01 3.475347e-01 4.185227e-01 4.873245e-01 5.535232e-01 6.166959e-01 6.764167e-01 7.322617e-01 7.838140e-01 8.306704e-01 8.724482e-01 9.087933e-01 9.393874e-01 9.639558e-01 9.822738e-01 9.941725e-01 9.995434e-01 4.977556e-02 1.255019e-01 2.006281e-01 2.747697e-01 3.475347e-01 4.185227e-01 4.873245e-01 5.535232e-01 6.166959e-01 6.764167e-01 7.322617e-01 7.838140e-01 8.306704e-01 8.724482e-01 9.087933e-01 9.393874e-01 9.639558e-01 9.822738e-01 9.941725e-01 9.995434e-01 2.359280e-02 9.686181e-02 1.698203e-01 2.421767e-01 3.136210e-01 3.838202e-01 4.524140e-01 5.190131e-01 5.831982e-01 6.445225e-01 7.025155e-01 7.566901e-01 8.065514e-01 8.516083e-01 8.913867e-01 9.254437e-01 9.533818e-01 9.748637e-01 9.896242e-01 9.974808e-01 9.983408e-01 2.359280e-02 9.686181e-02 1.698203e-01 2.421767e-01 3.136210e-01 3.838202e-01 4.524140e-01 5.190131e-01 5.831982e-01 6.445225e-01 7.025155e-01 7.566901e-01 8.065514e-01 8.516083e-01 8.913867e-01 9.254437e-01 9.533818e-01 9.748637e-01 9.896242e-01 9.974808e-01 9.983408e-01 4.452236e-02 1.126239e-01 1.807215e-01 2.486784e-01 3.163168e-01 3.834069e-01 4.496573e-01 5.147079e-01 5.781256e-01 6.394034e-01 6.979651e-01 7.531744e-01 8.043504e-01 8.507886e-01 8.917871e-01 9.266766e-01 9.548519e-01 9.758038e-01 9.891466e-01 9.946403e-01 9.922049e-01 4.452236e-02 1.126239e-01 1.807215e-01 2.486784e-01 3.163168e-01 3.834069e-01 4.496573e-01 5.147079e-01 5.781256e-01 6.394034e-01 6.979651e-01 7.531744e-01 8.043504e-01 8.507886e-01 8.917871e-01 9.266766e-01 9.548519e-01 9.758038e-01 9.891466e-01 9.946403e-01 9.922049e-01 2.095577e-02 8.644286e-02 1.521422e-01 2.180069e-01 2.839409e-01 3.497889e-01 4.153240e-01 4.802366e-01 5.441256e-01 6.064944e-01 6.667509e-01 7.242150e-01 7.781331e-01 8.277001e-01 8.720904e-01 9.104939e-01 9.421574e-01 9.664263e-01 9.827846e-01 9.908871e-01 9.905828e-01 9.819243e-01 2.095577e-02 8.644286e-02 1.521422e-01 2.180069e-01 2.839409e-01 3.497889e-01 4.153240e-01 4.802366e-01 5.441256e-01 6.064944e-01 6.667509e-01 7.242150e-01 7.781331e-01 8.277001e-01 8.720904e-01 9.104939e-01 9.421574e-01 9.664263e-01 9.827846e-01 9.908871e-01 9.905828e-01 9.819243e-01 3.928156e-02 9.980084e-02 1.609373e-01 2.227587e-01 2.852695e-01 3.483917e-01 4.119475e-01 4.756419e-01 5.390494e-01 6.016040e-01 6.625975e-01 7.211863e-01 7.764107e-01 8.272277e-01 8.725565e-01 9.113352e-01 9.425857e-01 9.654799e-01 9.793998e-01 9.839861e-01 9.791671e-01 9.651648e-01 3.928156e-02 9.980084e-02 1.609373e-01 2.227587e-01 2.852695e-01 3.483917e-01 4.119475e-01 4.756419e-01 5.390494e-01 6.016040e-01 6.625975e-01 7.211863e-01 7.764107e-01 8.272277e-01 8.725565e-01 9.113352e-01 9.425857e-01 9.654799e-01 9.793998e-01 9.839861e-01 9.791671e-01 9.651648e-01 1.836538e-02 7.618091e-02 1.347577e-01 1.942486e-01 2.547377e-01 3.162261e-01 3.786112e-01 4.416669e-01 5.050238e-01 5.681554e-01 6.303691e-01 6.908077e-01 7.484642e-01 8.022118e-01 8.508505e-01 8.931698e-01 9.280226e-01 9.544047e-01 9.715322e-01 9.789050e-01 9.763509e-01 9.640412e-01 9.424771e-01 1.836538e-02 7.618091e-02 1.347577e-01 1.942486e-01 2.547377e-01 3.162261e-01 3.786112e-01 4.416669e-01 5.050238e-01 5.681554e-01 6.303691e-01 6.908077e-01 7.484642e-01 8.022118e-01 8.508505e-01 8.931698e-01 9.280226e-01 9.544047e-01 9.715322e-01 9.789050e-01 9.763509e-01 9.640412e-01 9.424771e-01 3.424345e-02 8.746606e-02 1.419059e-01 1.978017e-01 2.553148e-01 3.145037e-01 3.752986e-01 4.374745e-01 5.006258e-01 5.641452e-01 6.272104e-01 6.887847e-01 7.476355e-01 8.023757e-01 8.515290e-01 8.936176e-01 9.272663e-01 9.513134e-01 9.649126e-01 9.676139e-01 9.594101e-01 9.407397e-01 9.124470e-01 3.424345e-02 8.746606e-02 1.419059e-01 1.978017e-01 2.553148e-01 3.145037e-01 3.752986e-01 4.374745e-01 5.006258e-01 5.641452e-01 6.272104e-01 6.887847e-01 7.476355e-01 8.023757e-01 8.515290e-01 8.936176e-01 9.272663e-01 9.513134e-01 9.649126e-01 9.676139e-01 9.594101e-01 9.407397e-01 9.124470e-01 1.591538e-02 6.642252e-02 1.182194e-01 1.716233e-01 2.268727e-01 2.841073e-01 3.433403e-01 4.044287e-01 4.670434e-01 5.306420e-01 5.944481e-01 6.574433e-01 7.183778e-01 7.758044e-01 8.281413e-01 8.737619e-01 9.111078e-01 9.388147e-01 9.558346e-01 9.615392e-01 9.557869e-01 9.389413e-01 9.118380e-01 8.757037e-01 1.591538e-02 6.642252e-02 1.182194e-01 1.716233e-01 2.268727e-01 2.841073e-01 3.433403e-01 4.044287e-01 4.670434e-01 5.306420e-01 5.944481e-01 6.574433e-01 7.183778e-01 7.758044e-01 8.281413e-01 8.737619e-01 9.111078e-01 9.388147e-01 9.558346e-01 9.615392e-01 9.557869e-01 9.389413e-01 9.118380e-01 8.757037e-01 2.957528e-02 7.600544e-02 1.241956e-01 1.745290e-01 2.273038e-01 2.827012e-01 3.407524e-01 4.013017e-01 4.639693e-01 5.281174e-01 5.928239e-01 6.568733e-01 7.187718e-01 7.767946e-01 8.290711e-01 8.737060e-01 9.089284e-01 9.332532e-01 9.456327e-01 9.455734e-01 9.331976e-01 9.092378e-01 8.749615e-01 8.320399e-01 2.957528e-02 7.600544e-02 1.241956e-01 1.745290e-01 2.273038e-01 2.827012e-01 3.407524e-01 4.013017e-01 4.639693e-01 5.281174e-01 5.928239e-01 6.568733e-01 7.187718e-01 7.767946e-01 8.290711e-01 8.737060e-01 9.089284e-01 9.332532e-01 9.456327e-01 9.455734e-01 9.331976e-01 9.092378e-01 8.749615e-01 8.320399e-01 1.368538e-02 5.746908e-02 1.030147e-01 1.507764e-01 2.011260e-01 2.543266e-01 3.104970e-01 3.695734e-01 4.312682e-01 4.950301e-01 5.600106e-01 6.250440e-01 6.886514e-01 7.490771e-01 8.043657e-01 8.524811e-01 8.914626e-01 9.196013e-01 9.356150e-01 9.387938e-01 9.290894e-01 9.071309e-01 8.741610e-01 8.319031e-01 7.823804e-01 1.368538e-02 5.746908e-02 1.030147e-01 1.507764e-01 2.011260e-01 2.543266e-01 3.104970e-01 3.695734e-01 4.312682e-01 4.950301e-01 5.600106e-01 6.250440e-01 6.886514e-01 7.490771e-01 8.043657e-01 8.524811e-01 8.914626e-01 9.196013e-01 9.356150e-01 9.387938e-01 9.290894e-01 9.071309e-01 8.741610e-01 8.319031e-01 7.823804e-01 2.541324e-02 6.574098e-02 1.082896e-01 1.535645e-01 2.019826e-01 2.538340e-01 3.092405e-01 3.681096e-01 4.300862e-01 4.945057e-01 5.603556e-01 6.262550e-01 6.904655e-01 7.509437e-01 8.054455e-01 8.516823e-01 8.875174e-01 9.111826e-01 9.214795e-01 9.179331e-01 9.008640e-01 8.713636e-01 8.311734e-01 7.824879e-01 7.277181e-01 2.541324e-02 6.574098e-02 1.082896e-01 1.535645e-01 2.019826e-01 2.538340e-01 3.092405e-01 3.681096e-01 4.300862e-01 4.945057e-01 5.603556e-01 6.262550e-01 6.904655e-01 7.509437e-01 8.054455e-01 8.516823e-01 8.875174e-01 9.111826e-01 9.214795e-01 9.179331e-01 9.008640e-01 8.713636e-01 8.311734e-01 7.824879e-01 7.277181e-01 1.173681e-02 4.956298e-02 8.954486e-02 1.322495e-01 1.781631e-01 2.276562e-01 2.809407e-01 3.380228e-01 3.986511e-01 4.622655e-01 5.279506e-01 5.944051e-01 6.599375e-01 7.225053e-01 7.798057e-01 8.294244e-01 8.690359e-01 8.966332e-01 9.107558e-01 9.106763e-01 8.965077e-01 8.692075e-01 8.304726e-01 7.825433e-01 7.279506e-01 6.692528e-01 1.173681e-02 4.956298e-02 8.954486e-02 1.322495e-01 1.781631e-01 2.276562e-01 2.809407e-01 3.380228e-01 3.986511e-01 4.622655e-01 5.279506e-01 5.944051e-01 6.599375e-01 7.225053e-01 7.798057e-01 8.294244e-01 8.690359e-01 8.966332e-01 9.107558e-01 9.106763e-01 8.965077e-01 8.692075e-01 8.304726e-01 7.825433e-01 7.279506e-01 6.692528e-01 2.185565e-02 5.691506e-02 9.456261e-02 1.354035e-01 1.799542e-01 2.285972e-01 2.815303e-01 3.387124e-01 3.998049e-01 4.641141e-01 5.305413e-01 5.975533e-01 6.631887e-01 7.251174e-01 7.807637e-01 8.274971e-01 8.628767e-01 8.849194e-01 8.923499e-01 8.847834e-01 8.628007e-01 8.278946e-01 7.822939e-01 7.286958e-01 6.699575e-01 6.088018e-01 2.185565e-02 5.691506e-02 9.456261e-02 1.354035e-01 1.799542e-01 2.285972e-01 2.815303e-01 3.387124e-01 3.998049e-01 4.641141e-01 5.305413e-01 5.975533e-01 6.631887e-01 7.251174e-01 7.807637e-01 8.274971e-01 8.628767e-01 8.849194e-01 8.923499e-01 8.847834e-01 8.628007e-01 8.278946e-01 7.822939e-01 7.286958e-01 6.699575e-01 6.088018e-01 1.010990e-02 4.287523e-02 7.810409e-02 1.164520e-01 1.584981e-01 2.047019e-01 2.553516e-01 3.105084e-01 3.699457e-01 4.330880e-01 4.989536e-01 5.661144e-01 6.326871e-01 6.963739e-01 7.545692e-01 8.045380e-01 8.436577e-01 8.696995e-01 8.811044e-01 8.772038e-01 8.583358e-01 8.258281e-01 7.818431e-01 7.291135e-01 6.706178e-01 6.092566e-01 5.475826e-01 1.010990e-02 4.287523e-02 7.810409e-02 1.164520e-01 1.584981e-01 2.047019e-01 2.553516e-01 3.105084e-01 3.699457e-01 4.330880e-01 4.989536e-01 5.661144e-01 6.326871e-01 6.963739e-01 7.545692e-01 8.045380e-01 8.436577e-01 8.696995e-01 8.811044e-01 8.772038e-01 8.583358e-01 8.258281e-01 7.818431e-01 7.291135e-01 6.706178e-01 6.092566e-01 5.475826e-01 1.895791e-02 4.967645e-02 8.325754e-02 1.203801e-01 1.616370e-01 2.074809e-01 2.581660e-01 3.136848e-01 3.737016e-01 4.374856e-01 5.038530e-01 5.711313e-01 6.371649e-01 6.993821e-01 7.549389e-01 8.009422e-01 8.347367e-01 8.542199e-01 8.581284e-01 8.462404e-01 8.194422e-01 7.796379e-01 7.295137e-01 6.722017e-01 6.109076e-01 5.485727e-01 4.876214e-01 1.895791e-02 4.967645e-02 8.325754e-02 1.203801e-01 1.616370e-01 2.074809e-01 2.581660e-01 3.136848e-01 3.737016e-01 4.374856e-01 5.038530e-01 5.711313e-01 6.371649e-01 6.993821e-01 7.549389e-01 8.009422e-01 8.347367e-01 8.542199e-01 8.581284e-01 8.462404e-01 8.194422e-01 7.796379e-01 7.295137e-01 6.722017e-01 6.109076e-01 5.485727e-01 4.876214e-01 8.821639e-03 3.749539e-02 6.885995e-02 1.036310e-01 1.424545e-01 1.858544e-01 2.341726e-01 2.875047e-01 3.456320e-01 4.079519e-01 4.734131e-01 5.404700e-01 6.070717e-01 6.707094e-01 7.285383e-01 7.775845e-01 8.150251e-01 8.385116e-01 8.4