<VTKFile type="UnstructuredGrid" version="0.1" byte_order="LittleEndian">
   <UnstructuredGrid>
      <Piece  NumberOfPoints="13440"  NumberOfCells="6561">
         <Points>
            <DataArray type="Float32" NumberOfComponents="3" format="ascii">
8.538528e-03 4.371861e-03 3.505151e-04
4.371861e-03 8.538528e-03 3.505151e-04
1.728098e-02 8.947651e-03 1.487924e-03
8.947651e-03 1.728098e-02 1.487924e-03
2.124246e-02 4.575790e-03 9.385371e-04
2.226338e-02 1.809671e-02 3.929475e-03
4.575790e-03 2.124246e-02 9.385371e-04
1.809671e-02 2.226338e-02 3.929475e-03
3.018632e-02 9.352987e-03 2.740278e-03
3.160881e-02 2.327548e-02 7.196975e-03
9.352987e-03 3.018632e-02 2.740278e-03
2.327548e-02 3.160881e-02 7.196975e-03
3.394386e-02 4.777197e-03 1.575024e-03
3.557028e-02 1.890362e-02 6.572740e-03
3.718291e-02 3.301625e-02 1.201718e-02
4.777197e-03 3.394386e-02 1.575024e-03
1.890362e-02 3.557028e-02 6.572740e-03
3.301625e-02 3.718291e-02 1.201718e-02
4.308537e-02 9.752037e-03 4.087497e-03
4.510586e-02 2.427252e-02 1.070903e-02
4.710514e-02 3.877181e-02 1.786153e-02
9.752037e-03 4.308537e-02 4.087497e-03
2.427252e-02 4.510586e-02 1.070903e-02
3.877181e-02 4.710514e-02 1.786153e-02
4.664151e-02 4.974840e-03 2.257230e-03
4.886340e-02 1.969673e-02 9.405326e-03
5.106661e-02 3.439995e-02 1.717598e-02
5.323756e-02 4.907089e-02 2.550464e-02
4.974840e-03 4.664151e-02 2.257230e-03
1.969673e-02 4.886340e-02 9.405326e-03
3.439995e-02 5.106661e-02 1.717598e-02
4.907089e-02 5.323756e-02 2.550464e-02
5.597567e-02 1.014234e-02 5.522921e-03
5.858170e-02 2.524837e-02 1.444658e-02
6.116051e-02 4.032717e-02 2.407126e-02
6.369619e-02 5.536286e-02 3.433814e-02
1.014234e-02 5.597567e-02 5.522921e-03
2.524837e-02 5.858170e-02 1.444658e-02
4.032717e-02 6.116051e-02 2.407126e-02
5.536286e-02 6.369619e-02 3.433814e-02
5.933417e-02 5.167500e-03 2.981657e-03
6.213784e-02 2.047117e-02 1.241158e-02
6.491805e-02 3.575138e-02 2.264234e-02
6.765766e-02 5.099100e-02 3.358872e-02
7.033979e-02 6.617313e-02 4.517583e-02
5.167500e-03 5.933417e-02 2.981657e-03
2.047117e-02 6.213784e-02 1.241158e-02
3.575138e-02 6.491805e-02 2.264234e-02
5.099100e-02 6.765766e-02 3.358872e-02
6.617313e-02 7.033979e-02 4.517583e-02
6.885482e-02 1.052149e-02 7.038395e-03
7.203032e-02 2.619699e-02 1.838660e-02
7.517275e-02 4.183942e-02 3.060509e-02
7.826274e-02 5.742940e-02 4.361364e-02
8.128123e-02 7.294790e-02 5.731610e-02
1.052149e-02 6.885482e-02 7.038395e-03
2.619699e-02 7.203032e-02 1.838660e-02
4.183942e-02 7.517275e-02 3.060509e-02
5.742940e-02 7.826274e-02 4.361364e-02
7.294790e-02 8.128123e-02 5.731610e-02
7.202066e-02 5.353989e-03 3.744102e-03
7.538881e-02 2.122215e-02 1.557279e-02
7.872889e-02 3.706222e-02 2.837961e-02
8.202028e-02 5.285361e-02 4.205581e-02
8.524270e-02 6.857604e-02 5.650180e-02
8.837629e-02 8.420962e-02 7.160234e-02
5.353989e-03 7.202066e-02 3.744102e-03
2.122215e-02 7.538881e-02 1.557279e-02
3.706222e-02 7.872889e-02 2.837961e-02
5.285361e-02 8.202028e-02 4.205581e-02
6.857604e-02 8.524270e-02 5.650180e-02
8.420962e-02 8.837629e-02 7.160234e-02
8.172048e-02 1.088715e-02 8.624381e-03
8.544587e-02 2.711254e-02 2.250238e-02
8.913255e-02 4.329922e-02 3.741565e-02
9.275779e-02 5.942446e-02 5.325978e-02
9.629923e-02 7.546590e-02 6.991101e-02
9.973505e-02 9.140171e-02 8.722896e-02
1.088715e-02 8.172048e-02 8.624381e-03
2.711254e-02 8.544587e-02 2.250238e-02
4.329922e-02 8.913255e-02 3.741565e-02
5.942446e-02 9.275779e-02 5.325978e-02
7.546590e-02 9.629923e-02 6.991101e-02
9.140171e-02 9.973505e-02 8.722896e-02
8.469983e-02 5.533159e-03 4.539706e-03
8.861171e-02 2.194504e-02 1.886747e-02
9.249105e-02 3.832438e-02 3.434609e-02
9.631393e-02 5.464726e-02 5.084056e-02
1.000568e-01 7.089011e-02 6.822387e-02
1.036965e-01 8.702985e-02 8.635051e-02
1.072107e-01 1.030441e-01 1.050597e-01
5.533159e-03 8.469983e-02 4.539706e-03
2.194504e-02 8.861171e-02 1.886747e-02
3.832438e-02 9.249105e-02 3.434609e-02
5.464726e-02 9.631393e-02 5.084056e-02
7.089011e-02 1.000568e-01 6.822387e-02
8.702985e-02 1.036965e-01 8.635051e-02
1.030441e-01 1.072107e-01 1.050597e-01
9.457040e-02 1.123706e-02 1.027007e-02
9.882271e-02 2.798938e-02 2.676396e-02
1.030309e-01 4.469758e-02 4.445031e-02
1.071690e-01 6.133571e-02 6.319793e-02
1.112116e-01 7.787827e-02 8.285299e-02
1.151337e-01 9.430033e-02 1.032426e-01
1.189110e-01 1.105777e-01 1.241790e-01
1.123706e-02 9.457040e-02 1.027007e-02
2.798938e-02 9.882271e-02 2.676396e-02
4.469758e-02 1.030309e-01 4.445031e-02
6.133571e-02 1.071690e-01 6.319793e-02
7.787827e-02 1.112116e-01 8.285299e-02
9.430033e-02 1.151337e-01 1.032426e-01
1.105777e-01 1.189110e-01 1.241790e-01
9.737057e-02 5.703903e-03 5.363011e-03
1.018021e-01 2.263539e-02 2.227166e-02
1.061967e-01 3.953008e-02 4.049569e-02
1.105275e-01 5.636087e-02 5.987143e-02
1.147677e-01 7.310107e-02 8.024203e-02
1.188912e-01 8.972454e-02 1.014295e-01
1.228725e-01 1.062058e-01 1.232390e-01
1.266871e-01 1.225204e-01 1.454632e-01
5.703903e-03 9.737057e-02 5.363011e-03
2.263539e-02 1.018021e-01 2.227166e-02
3.953008e-02 1.061967e-01 4.049569e-02
5.636087e-02 1.105275e-01 5.987143e-02
7.310107e-02 1.147677e-01 8.024203e-02
8.972454e-02 1.188912e-01 1.014295e-01
1.062058e-01 1.228725e-01 1.232390e-01
1.225204e-01 1.266871e-01 1.454632e-01
1.074024e-01 1.156907e-02 1.196354e-02
1.121554e-01 2.882210e-02 3.113856e-02
1.168592e-01 4.602587e-02 5.165199e-02
1.214847e-01 6.315140e-02 7.334362e-02
1.260035e-01 8.017014e-02 9.602750e-02
1.303876e-01 9.705426e-02 1.194966e-01
1.346101e-01 1.137767e-01 1.435277e-01
1.386448e-01 1.303115e-01 1.678869e-01
1.156907e-02 1.074024e-01 1.196354e-02
2.882210e-02 1.121554e-01 3.113856e-02
4.602587e-02 1.168592e-01 5.165199e-02
6.315140e-02 1.214847e-01 7.334362e-02
8.017014e-02 1.260035e-01 9.602750e-02
9.705426e-02 1.303876e-01 1.194966e-01
1.137767e-01 1.346101e-01 1.435277e-01
1.303115e-01 1.386448e-01 1.678869e-01
1.100318e-01 5.865170e-03 6.208037e-03
1.149556e-01 2.328894e-02 2.575925e-02
1.198386e-01 4.067189e-02 4.677868e-02
1.246506e-01 5.798390e-02 6.907189e-02
1.293620e-01 7.519530e-02 9.245024e-02
1.339437e-01 9.227706e-02 1.167017e-01
1.383676e-01 1.092009e-01 1.415960e-01
1.426063e-01 1.259396e-01 1.668902e-01
1.466337e-01 1.424670e-01 1.923346e-01
5.865170e-03 1.100318e-01 6.208037e-03
2.328894e-02 1.149556e-01 2.575925e-02
4.067189e-02 1.198386e-01 4.677868e-02
5.798390e-02 1.246506e-01 6.907189e-02
7.519530e-02 1.293620e-01 9.245024e-02
9.227706e-02 1.339437e-01 1.167017e-01
1.092009e-01 1.383676e-01 1.415960e-01
1.259396e-01 1.426063e-01 1.668902e-01
1.424670e-01 1.466337e-01 1.923346e-01
1.202145e-01 1.188114e-02 1.369191e-02
1.254389e-01 2.960557e-02 3.559107e-02
1.306092e-01 4.727592e-02 5.896015e-02
1.356936e-01 6.486030e-02 8.360805e-02
1.406607e-01 8.232738e-02 1.093152e-01
1.454799e-01 9.964653e-02 1.358393e-01
1.501214e-01 1.167880e-01 1.629213e-01
1.545566e-01 1.337233e-01 1.902919e-01
1.587583e-01 1.504249e-01 2.176779e-01
1.188114e-02 1.202145e-01 1.369191e-02
2.960557e-02 1.254389e-01 3.559107e-02
4.727592e-02 1.306092e-01 5.896015e-02
6.486030e-02 1.356936e-01 8.360805e-02
8.232738e-02 1.406607e-01 1.093152e-01
9.964653e-02 1.454799e-01 1.358393e-01
1.167880e-01 1.501214e-01 1.629213e-01
1.337233e-01 1.545566e-01 1.902919e-01
1.504249e-01 1.587583e-01 2.176779e-01
1.226826e-01 6.015965e-03 7.068351e-03
1.280683e-01 2.390166e-02 2.930238e-02
1.334094e-01 4.174276e-02 5.314247e-02
1.386730e-01 5.950631e-02 7.836179e-02
1.438266e-01 7.715988e-02 1.047384e-01
1.488384e-01 9.467169e-02 1.320252e-01
1.536775e-01 1.120108e-01 1.599561e-01
1.583142e-01 1.291475e-01 1.882527e-01
1.627197e-01 1.460531e-01 2.166310e-01
1.668671e-01 1.627004e-01 2.448083e-01
6.015965e-03 1.226826e-01 7.068351e-03
2.390166e-02 1.280683e-01 2.930238e-02
4.174276e-02 1.334094e-01 5.314247e-02
5.950631e-02 1.386730e-01 7.836179e-02
7.715988e-02 1.438266e-01 1.047384e-01
9.467169e-02 1.488384e-01 1.320252e-01
1.120108e-01 1.536775e-01 1.599561e-01
1.291475e-01 1.583142e-01 1.882527e-01
1.460531e-01 1.627197e-01 2.166310e-01
1.627004e-01 1.668671e-01 2.448083e-01
1.330047e-01 1.217132e-02 1.544150e-02
1.386683e-01 3.033495e-02 4.008460e-02
1.442733e-01 4.844000e-02 6.631174e-02
1.497852e-01 6.645191e-02 9.389961e-02
1.551700e-01 8.433669e-02 1.225941e-01
1.603945e-01 1.020612e-01 1.521172e-01
1.654264e-01 1.195931e-01 1.821743e-01
1.702348e-01 1.369015e-01 2.124615e-01
1.747900e-01 1.539567e-01 2.426732e-01
1.790639e-01 1.707306e-01 2.725088e-01
1.217132e-02 1.330047e-01 1.544150e-02
3.033495e-02 1.386683e-01 4.008460e-02
4.844000e-02 1.442733e-01 6.631174e-02
6.645191e-02 1.497852e-01 9.389961e-02
8.433669e-02 1.551700e-01 1.225941e-01
1.020612e-01 1.603945e-01 1.521172e-01
1.195931e-01 1.654264e-01 1.821743e-01
1.369015e-01 1.702348e-01 2.124615e-01
1.539567e-01 1.747900e-01 2.426732e-01
1.707306e-01 1.790639e-01 2.725088e-01
1.353220e-01 6.155359e-03 7.937158e-03
1.411364e-01 2.446978e-02 3.287186e-02
1.469028e-01 4.273609e-02 5.953247e-02
1.525854e-01 6.091875e-02 8.765868e-02
1.581494e-01 7.898270e-02 1.169945e-01
1.635603e-01 9.689366e-02 1.472573e-01
1.687849e-01 1.146183e-01 1.781453e-01
1.737910e-01 1.321243e-01 2.093454e-01
1.785476e-01 1.493809e-01 2.405412e-01
1.830254e-01 1.663587e-01 2.714198e-01
1.871968e-01 1.830302e-01 3.016798e-01
6.155359e-03 1.353220e-01 7.937158e-03
2.446978e-02 1.411364e-01 3.287186e-02
4.273609e-02 1.469028e-01 5.953247e-02
6.091875e-02 1.525854e-01 8.765868e-02
7.898270e-02 1.581494e-01 1.169945e-01
9.689366e-02 1.635603e-01 1.472573e-01
1.146183e-01 1.687849e-01 1.781453e-01
1.321243e-01 1.737910e-01 2.093454e-01
1.493809e-01 1.785476e-01 2.405412e-01
1.663587e-01 1.830254e-01 2.714198e-01
1.830302e-01 1.871968e-01 3.016798e-01
1.457712e-01 1.243785e-02 1.719804e-02
1.518391e-01 3.100575e-02 4.458100e-02
1.578443e-01 4.951094e-02 7.364223e-02
1.637497e-01 6.791639e-02 1.041255e-01
1.695190e-01 8.618568e-02 1.357419e-01
1.751166e-01 1.042833e-01 1.681781e-01
1.805079e-01 1.221746e-01 2.011046e-01
[...]
         <PointData Scalars="count">
            <DataArray type="Float64" Name="solution" format="ascii">
3.505151e-04 3.505151e-04 1.487924e-03 1.487924e-03 9.385371e-04 3.929475e-03 9.385371e-04 3.929475e-03 2.740278e-03 7.196975e-03 2.740278e-03 7.196975e-03 1.575024e-03 6.572740e-03 1.201718e-02 1.575024e-03 6.572740e-03 1.201718e-02 4.087497e-03 1.070903e-02 1.786153e-02 4.087497e-03 1.070903e-02 1.786153e-02 2.257230e-03 9.405326e-03 1.717598e-02 2.550464e-02 2.257230e-03 9.405326e-03 1.717598e-02 2.550464e-02 5.522921e-03 1.444658e-02 2.407126e-02 3.433814e-02 5.522921e-03 1.444658e-02 2.407126e-02 3.433814e-02 2.981657e-03 1.241158e-02 2.264234e-02 3.358872e-02 4.517583e-02 2.981657e-03 1.241158e-02 2.264234e-02 3.358872e-02 4.517583e-02 7.038395e-03 1.838660e-02 3.060509e-02 4.361364e-02 5.731610e-02 7.038395e-03 1.838660e-02 3.060509e-02 4.361364e-02 5.731610e-02 3.744102e-03 1.557279e-02 2.837961e-02 4.205581e-02 5.650180e-02 7.160234e-02 3.744102e-03 1.557279e-02 2.837961e-02 4.205581e-02 5.650180e-02 7.160234e-02 8.624381e-03 2.250238e-02 3.741565e-02 5.325978e-02 6.991101e-02 8.722896e-02 8.624381e-03 2.250238e-02 3.741565e-02 5.325978e-02 6.991101e-02 8.722896e-02 4.539706e-03 1.886747e-02 3.434609e-02 5.084056e-02 6.822387e-02 8.635051e-02 1.050597e-01 4.539706e-03 1.886747e-02 3.434609e-02 5.084056e-02 6.822387e-02 8.635051e-02 1.050597e-01 1.027007e-02 2.676396e-02 4.445031e-02 6.319793e-02 8.285299e-02 1.032426e-01 1.241790e-01 1.027007e-02 2.676396e-02 4.445031e-02 6.319793e-02 8.285299e-02 1.032426e-01 1.241790e-01 5.363011e-03 2.227166e-02 4.049569e-02 5.987143e-02 8.024203e-02 1.014295e-01 1.232390e-01 1.454632e-01 5.363011e-03 2.227166e-02 4.049569e-02 5.987143e-02 8.024203e-02 1.014295e-01 1.232390e-01 1.454632e-01 1.196354e-02 3.113856e-02 5.165199e-02 7.334362e-02 9.602750e-02 1.194966e-01 1.435277e-01 1.678869e-01 1.196354e-02 3.113856e-02 5.165199e-02 7.334362e-02 9.602750e-02 1.194966e-01 1.435277e-01 1.678869e-01 6.208037e-03 2.575925e-02 4.677868e-02 6.907189e-02 9.245024e-02 1.167017e-01 1.415960e-01 1.668902e-01 1.923346e-01 6.208037e-03 2.575925e-02 4.677868e-02 6.907189e-02 9.245024e-02 1.167017e-01 1.415960e-01 1.668902e-01 1.923346e-01 1.369191e-02 3.559107e-02 5.896015e-02 8.360805e-02 1.093152e-01 1.358393e-01 1.629213e-01 1.902919e-01 2.176779e-01 1.369191e-02 3.559107e-02 5.896015e-02 8.360805e-02 1.093152e-01 1.358393e-01 1.629213e-01 1.902919e-01 2.176779e-01 7.068351e-03 2.930238e-02 5.314247e-02 7.836179e-02 1.047384e-01 1.320252e-01 1.599561e-01 1.882527e-01 2.166310e-01 2.448083e-01 7.068351e-03 2.930238e-02 5.314247e-02 7.836179e-02 1.047384e-01 1.320252e-01 1.599561e-01 1.882527e-01 2.166310e-01 2.448083e-01 1.544150e-02 4.008460e-02 6.631174e-02 9.389961e-02 1.225941e-01 1.521172e-01 1.821743e-01 2.124615e-01 2.426732e-01 2.725088e-01 1.544150e-02 4.008460e-02 6.631174e-02 9.389961e-02 1.225941e-01 1.521172e-01 1.821743e-01 2.124615e-01 2.426732e-01 2.725088e-01 7.937158e-03 3.287186e-02 5.953247e-02 8.765868e-02 1.169945e-01 1.472573e-01 1.781453e-01 2.093454e-01 2.405412e-01 2.714198e-01 3.016798e-01 7.937158e-03 3.287186e-02 5.953247e-02 8.765868e-02 1.169945e-01 1.472573e-01 1.781453e-01 2.093454e-01 2.405412e-01 2.714198e-01 3.016798e-01 1.719804e-02 4.458100e-02 7.364223e-02 1.041255e-01 1.357419e-01 1.681781e-01 2.011046e-01 2.341847e-01 2.670821e-01 2.994698e-01 3.310362e-01 1.719804e-02 4.458100e-02 7.364223e-02 1.041255e-01 1.357419e-01 1.681781e-01 2.011046e-01 2.341847e-01 2.670821e-01 2.994698e-01 3.310362e-01 8.807383e-03 3.643754e-02 6.589290e-02 9.687919e-02 1.291061e-01 1.622561e-01 1.959925e-01 2.299693e-01 2.638392e-01 2.972625e-01 3.299145e-01 3.614918e-01 8.807383e-03 3.643754e-02 6.589290e-02 9.687919e-02 1.291061e-01 1.622561e-01 1.959925e-01 2.299693e-01 2.638392e-01 2.972625e-01 3.299145e-01 3.614918e-01 1.894683e-02 4.904143e-02 8.088659e-02 1.141930e-01 1.486377e-01 1.838729e-01 2.195361e-01 2.552597e-01 2.906798e-01 3.254456e-01 3.592263e-01 3.917180e-01 1.894683e-02 4.904143e-02 8.088659e-02 1.141930e-01 1.486377e-01 1.838729e-01 2.195361e-01 2.552597e-01 2.906798e-01 3.254456e-01 3.592263e-01 3.917180e-01 9.671769e-03 3.996880e-02 7.216766e-02 1.059403e-01 1.409629e-01 1.768836e-01 2.133332e-01 2.499345e-01 2.863126e-01 3.221037e-01 3.569634e-01 3.905737e-01 4.226481e-01 9.671769e-03 3.996880e-02 7.216766e-02 1.059403e-01 1.409629e-01 1.768836e-01 2.133332e-01 2.499345e-01 2.863126e-01 3.221037e-01 3.569634e-01 3.905737e-01 4.226481e-01 2.067298e-02 5.342692e-02 8.798032e-02 1.240115e-01 1.611645e-01 1.990590e-01 2.373020e-01 2.754978e-01 3.132582e-01 3.502122e-01 3.860135e-01 4.203476e-01 4.529359e-01 2.067298e-02 5.342692e-02 8.798032e-02 1.240115e-01 1.611645e-01 1.990590e-01 2.373020e-01 2.754978e-01 3.132582e-01 3.502122e-01 3.860135e-01 4.203476e-01 4.529359e-01 1.052297e-02 4.343494e-02 7.830117e-02 1.147609e-01 1.524576e-01 1.910078e-01 2.300116e-01 2.690638e-01 3.077652e-01 3.457314e-01 3.826025e-01 4.180493e-01 4.517792e-01 4.835398e-01 1.052297e-02 4.343494e-02 7.830117e-02 1.147609e-01 1.524576e-01 1.910078e-01 2.300116e-01 2.690638e-01 3.077652e-01 3.457314e-01 3.826025e-01 4.180493e-01 4.517792e-01 4.835398e-01 2.236157e-02 5.769892e-02 9.486037e-02 1.334933e-01 1.732104e-01 2.136020e-01 2.542472e-01 2.947258e-01 3.346291e-01 3.735697e-01 4.111900e-01 4.471683e-01 4.812242e-01 5.131208e-01 2.236157e-02 5.769892e-02 9.486037e-02 1.334933e-01 1.732104e-01 2.136020e-01 2.542472e-01 2.947258e-01 3.346291e-01 3.735697e-01 4.111900e-01 4.471683e-01 4.812242e-01 5.131208e-01 1.135364e-02 4.680560e-02 8.423914e-02 1.232624e-01 1.634885e-01 2.045045e-01 2.458831e-01 2.871950e-01 3.280200e-01 3.679576e-01 4.066358e-01 4.437186e-01 4.789107e-01 5.119615e-01 5.426662e-01 1.135364e-02 4.680560e-02 8.423914e-02 1.232624e-01 1.634885e-01 2.045045e-01 2.458831e-01 2.871950e-01 3.280200e-01 3.679576e-01 4.066358e-01 4.437186e-01 4.789107e-01 5.119615e-01 5.426662e-01 2.399789e-02 6.181985e-02 1.014661e-01 1.425549e-01 1.846708e-01 2.273775e-01 2.702302e-01 3.127881e-01 3.546261e-01 3.953446e-01 4.345784e-01 4.720030e-01 5.073389e-01 5.403544e-01 5.708659e-01 2.399789e-02 6.181985e-02 1.014661e-01 1.425549e-01 1.846708e-01 2.273775e-01 2.702302e-01 3.127881e-01 3.546261e-01 3.953446e-01 4.345784e-01 4.720030e-01 5.073389e-01 5.403544e-01 5.708659e-01 1.215656e-02 5.005121e-02 8.992937e-02 1.313704e-01 1.739600e-01 2.172589e-01 2.608164e-01 3.041827e-01 3.469212e-01 3.886192e-01 4.288970e-01 4.674152e-01 5.038797e-01 5.380445e-01 5.697129e-01 5.987369e-01 1.215656e-02 5.005121e-02 8.992937e-02 1.313704e-01 1.739600e-01 2.172589e-01 2.608164e-01 3.041827e-01 3.469212e-01 3.886192e-01 4.288970e-01 4.674152e-01 5.038797e-01 5.380445e-01 5.697129e-01 5.987369e-01 2.556758e-02 6.575361e-02 1.077399e-01 1.511185e-01 1.954493e-01 2.402729e-01 2.851249e-01 3.295485e-01 3.731062e-01 4.153907e-01 4.560331e-01 4.947094e-01 5.311445e-01 5.651142e-01 5.964455e-01 6.250141e-01 2.556758e-02 6.575361e-02 1.077399e-01 1.511185e-01 1.954493e-01 2.402729e-01 2.851249e-01 3.295485e-01 3.731062e-01 4.153907e-01 4.560331e-01 4.947094e-01 5.311445e-01 5.651142e-01 5.964455e-01 6.250141e-01 1.292467e-02 5.314337e-02 9.532240e-02 1.390156e-01 1.837844e-01 2.291674e-01 2.746944e-01 3.198998e-01 3.643350e-01 4.075794e-01 4.492497e-01 4.890067e-01 5.265604e-01 5.616723e-01 5.941559e-01 6.238752e-01 6.507420e-01 1.292467e-02 5.314337e-02 9.532240e-02 1.390156e-01 1.837844e-01 2.291674e-01 2.746944e-01 3.198998e-01 3.643350e-01 4.075794e-01 4.492497e-01 4.890067e-01 5.265604e-01 5.616723e-01 5.941559e-01 6.238752e-01 6.507420e-01 2.705688e-02 6.946601e-02 1.136282e-01 1.591128e-01 2.054587e-01 2.521882e-01 2.988217e-01 3.448907e-01 3.899503e-01 4.335894e-01 4.754392e-01 5.151796e-01 5.525425e-01 5.873134e-01 6.193311e-01 6.484850e-01 6.747112e-01 2.705688e-02 6.946601e-02 1.136282e-01 1.591128e-01 2.054587e-01 2.521882e-01 2.988217e-01 3.448907e-01 3.899503e-01 4.335894e-01 4.754392e-01 5.151796e-01 5.525425e-01 5.873134e-01 6.193311e-01 6.484850e-01 6.747112e-01 1.365122e-02 5.605519e-02 1.003722e-01 1.461343e-01 1.928826e-01 2.401380e-01 2.874155e-01 3.342385e-01 3.801507e-01 4.247281e-01 4.675874e-01 5.083932e-01 5.468624e-01 5.827661e-01 6.159294e-01 6.462296e-01 6.735926e-01 6.979877e-01 1.365122e-02 5.605519e-02 1.003722e-01 1.461343e-01 1.928826e-01 2.401380e-01 2.874155e-01 3.342385e-01 3.801507e-01 4.247281e-01 4.675874e-01 5.083932e-01 5.468624e-01 5.827661e-01 6.159294e-01 6.462296e-01 6.735926e-01 6.979877e-01 2.845276e-02 7.292526e-02 1.190820e-01 1.664736e-01 2.146224e-01 2.630371e-01 3.112279e-01 3.587193e-01 4.050634e-01 4.498493e-01 4.927121e-01 5.333382e-01 5.714688e-01 6.069010e-01 6.394863e-01 6.691278e-01 6.957759e-01 7.194227e-01 2.845276e-02 7.292526e-02 1.190820e-01 1.664736e-01 2.146224e-01 2.630371e-01 3.112279e-01 3.587193e-01 4.050634e-01 4.498493e-01 4.927121e-01 5.333382e-01 5.714688e-01 6.069010e-01 6.394863e-01 6.691278e-01 6.957759e-01 7.194227e-01 1.432986e-02 5.876168e-02 1.050366e-01 1.526693e-01 2.011850e-01 2.500916e-01 2.988945e-01 3.471103e-01 3.942803e-01 4.399807e-01 4.838322e-01 5.255062e-01 5.647286e-01 6.012818e-01 6.350035e-01 6.657848e-01 6.935655e-01 7.183290e-01 7.400963e-01 1.432986e-02 5.876168e-02 1.050366e-01 1.526693e-01 2.011850e-01 2.500916e-01 2.988945e-01 3.471103e-01 3.942803e-01 4.399807e-01 4.838322e-01 5.255062e-01 5.647286e-01 6.012818e-01 6.350035e-01 6.657848e-01 6.935655e-01 7.183290e-01 7.400963e-01 2.974311e-02 7.610231e-02 1.240574e-01 1.731447e-01 2.228746e-01 2.727476e-01 3.222683e-01 3.709594e-01 4.183738e-01 4.641051e-01 5.077953e-01 5.491399e-01 5.878913e-01 6.238588e-01 6.569074e-01 6.869538e-01 7.139619e-01 7.379371e-01 7.589196e-01 2.974311e-02 7.610231e-02 1.240574e-01 1.731447e-01 2.228746e-01 2.727476e-01 3.222683e-01 3.709594e-01 4.183738e-01 4.641051e-01 5.077953e-01 5.491399e-01 5.878913e-01 6.238588e-01 6.569074e-01 6.869538e-01 7.139619e-01 7.379371e-01 7.589196e-01 1.495465e-02 6.124001e-02 1.092781e-01 1.585707e-01 2.086321e-01 2.589624e-01 3.090621e-01 3.584464e-01 4.066580e-01 4.532778e-01 4.979335e-01 5.403058e-01 5.801318e-01 6.172061e-01 6.513798e-01 6.825572e-01 7.106917e-01 7.357794e-01 7.578537e-01 7.769777e-01 1.495465e-02 6.124001e-02 1.092781e-01 1.585707e-01 2.086321e-01 2.589624e-01 3.090621e-01 3.584464e-01 4.066580e-01 4.532778e-01 4.979335e-01 5.403058e-01 5.801318e-01 6.172061e-01 6.513798e-01 6.825572e-01 7.106917e-01 7.357794e-01 7.578537e-01 7.769777e-01 3.091689e-02 7.897124e-02 1.285160e-01 1.790780e-01 2.301610e-01 2.812620e-01 3.318852e-01 3.815559e-01 4.298325e-01 4.763163e-01 5.206588e-01 5.625670e-01 6.018056e-01 6.381969e-01 6.716192e-01 7.020021e-01 7.293223e-01 7.535966e-01 7.748759e-01 7.932382e-01 3.091689e-02 7.897124e-02 1.285160e-01 1.790780e-01 2.301610e-01 2.812620e-01 3.318852e-01 3.815559e-01 4.298325e-01 4.763163e-01 5.206588e-01 5.625670e-01 6.018056e-01 6.381969e-01 6.716192e-01 7.020021e-01 7.293223e-01 7.535966e-01 7.748759e-01 7.932382e-01 1.552021e-02 6.346981e-02 1.130636e-01 1.637959e-01 2.151749e-01 2.666978e-01 3.178656e-01 3.681967e-01 4.172395e-01 4.645831e-01 5.098654e-01 5.527784e-01 5.930717e-01 6.305529e-01 6.650864e-01 6.965893e-01 7.250272e-01 7.504081e-01 7.727754e-01 7.922017e-01 8.087819e-01 1.552021e-02 6.346981e-02 1.130636e-01 1.637959e-01 2.151749e-01 2.666978e-01 3.178656e-01 3.681967e-01 4.172395e-01 4.645831e-01 5.098654e-01 5.527784e-01 5.930717e-01 6.305529e-01 6.650864e-01 6.965893e-01 7.250272e-01 7.504081e-01 7.727754e-01 7.922017e-01 8.087819e-01 3.196425e-02 8.150948e-02 1.324255e-01 1.842343e-01 2.364386e-01 2.885367e-01 3.400375e-01 3.904733e-01 4.394116e-01 4.864647e-01 5.312962e-01 5.736260e-01 6.132319e-01 6.499496e-01 6.836698e-01 7.143344e-01 7.419310e-01 7.664866e-01 7.880609e-01 8.067394e-01 8.226267e-01 3.196425e-02 8.150948e-02 1.324255e-01 1.842343e-01 2.364386e-01 2.885367e-01 3.400375e-01 3.904733e-01 4.394116e-01 4.864647e-01 5.312962e-01 5.736260e-01 6.132319e-01 6.499496e-01 6.836698e-01 7.143344e-01 7.419310e-01 7.664866e-01 7.880609e-01 8.067394e-01 8.226267e-01 1.602177e-02 6.543337e-02 1.163656e-01 1.683102e-01 2.207747e-01 2.732587e-01 3.252682e-01 3.763295e-01 4.260007e-01 4.738824e-01 5.196249e-01 5.629335e-01 6.035713e-01 6.413590e-01 6.761738e-01 7.079448e-01 7.366484e-01 7.623024e-01 7.849590e-01 8.046979e-01 8.216200e-01 8.358410e-01 1.602177e-02 6.543337e-02 1.163656e-01 1.683102e-01 2.207747e-01 2.732587e-01 3.252682e-01 3.763295e-01 4.260007e-01 4.738824e-01 5.196249e-01 5.629335e-01 6.035713e-01 6.413590e-01 6.761738e-01 7.079448e-01 7.366484e-01 7.623024e-01 7.849590e-01 8.046979e-01 8.216200e-01 8.358410e-01 3.287668e-02 8.369809e-02 1.357595e-01 1.885833e-01 2.416759e-01 2.945423e-01 3.467005e-01 3.976940e-01 4.471030e-01 4.945532e-01 5.397225e-01 5.823447e-01 6.222114e-01 6.591711e-01 6.931264e-01 7.240299e-01 7.518786e-01 7.767076e-01 7.985834e-01 8.175969e-01 8.338572e-01 8.474855e-01 3.287668e-02 8.369809e-02 1.357595e-01 1.885833e-01 2.416759e-01 2.945423e-01 3.467005e-01 3.976940e-01 4.471030e-01 4.945532e-01 5.397225e-01 5.823447e-01 6.222114e-01 6.591711e-01 6.931264e-01 7.240299e-01 7.518786e-01 7.767076e-01 7.985834e-01 8.175969e-01 8.338572e-01 8.474855e-01 1.645521e-02 6.711588e-02 1.191616e-01 1.720870e-01 2.254038e-01 2.786189e-01 3.312484e-01 3.828302e-01 4.329361e-01 4.811807e-01 5.272291e-01 5.708010e-01 6.116734e-01 6.496803e-01 6.847105e-01 7.167040e-01 7.456465e-01 7.715636e-01 7.945139e-01 8.145825e-01 8.318743e-01 8.465078e-01 8.586097e-01 1.645521e-02 6.711588e-02 1.191616e-01 1.720870e-01 2.254038e-01 2.786189e-01 3.312484e-01 3.828302e-01 4.329361e-01 4.811807e-01 5.272291e-01 5.708010e-01 6.116734e-01 6.496803e-01 6.847105e-01 7.167040e-01 7.456465e-01 7.715636e-01 7.945139e-01 8.145825e-01 8.318743e-01 8.465078e-01 8.586097e-01 3.364707e-02 8.552190e-02 1.384980e-01 1.921034e-01 2.458530e-01 2.992630e-01 3.518651e-01 4.032175e-01 4.529162e-01 5.006029e-01 5.459709e-01 5.887690e-01 6.288025e-01 6.659319e-01 7.000708e-01 7.311809e-01 7.592668e-01 7.843695e-01 8.065601e-01 8.259331e-01 8.425997e-01 8.566825e-01 8.683101e-01 3.364707e-02 8.552190e-02 1.384980e-01 1.921034e-01 2.458530e-01 2.992630e-01 3.518651e-01 4.032175e-01 4.529162e-01 5.006029e-01 5.459709e-01 5.887690e-01 6.288025e-01 6.659319e-01 7.000708e-01 7.311809e-01 7.592668e-01 7.843695e-01 8.065601e-01 8.259331e-01 8.425997e-01 8.566825e-01 8.683101e-01 1.681711e-02 6.850550e-02 1.214348e-01 1.751074e-01 2.290446e-01 2.827651e-01 3.357991e-01 3.877005e-01 4.380573e-01 4.865011e-01 5.327129e-01 5.764280e-01 6.174374e-01 6.555878e-01 6.907788e-01 7.229596e-01 7.521234e-01 7.783014e-01 8.015569e-01 8.219778e-01 8.396710e-01 8.547561e-01 8.673600e-01 8.776126e-01 1.681711e-02 6.850550e-02 1.214348e-01 1.751074e-01 2.290446e-01 2.827651e-01 3.357991e-01 3.877005e-01 4.380573e-01 4.865011e-01 5.327129e-01 5.764280e-01 6.174374e-01 6.555878e-01 6.907788e-01 7.229596e-01 7.521234e-01 7.783014e-01 8.015569e-01 8.219778e-01 8.396710e-01 8.547561e-01 8.673600e-01 8.776126e-01 3.426985e-02 8.696964e-02 1.406276e-01 1.947818e-01 2.489606e-01 3.026958e-01 3.555364e-01 4.070588e-01 4.568773e-01 5.046512e-01 5.500909e-01 5.929601e-01 6.330774e-01 6.703151e-01 7.045960e-01 7.358892e-01 7.642049e-01 7.895880e-01 8.121122e-01 8.318729e-01 8.489819e-01 8.635614e-01 8.757387e-01 8.856429e-01 3.426985e-02 8.696964e-02 1.406276e-01 1.947818e-01 2.489606e-01 3.026958e-01 3.555364e-01 4.070588e-01 4.568773e-01 5.046512e-01 5.500909e-01 5.929601e-01 6.330774e-01 6.703151e-01 7.045960e-01 7.358892e-01 7.642049e-01 7.895880e-01 8.121122e-01 8.318729e-01 8.489819e-01 8.635614e-01 8.757387e-01 8.856429e-01 1.710483e-02 6.959352e-02 1.231738e-01 1.773609e-01 2.316898e-01 2.856959e-01 3.389272e-01 3.909567e-01 4.413916e-01 4.898819e-01 5.361265e-01 5.798762e-01 6.209362e-01 6.591649e-01 6.944716e-01 7.268130e-01 7.561878e-01 7.826310e-01 8.062080e-01 8.270077e-01 8.451368e-01 8.607142e-01 8.738654e-01 8.847185e-01 8.934006e-01 1.710483e-02 6.959352e-02 1.231738e-01 1.773609e-01 2.316898e-01 2.856959e-01 3.389272e-01 3.909567e-01 4.413916e-01 4.898819e-01 5.361265e-01 5.798762e-01 6.209362e-01 6.591649e-01 6.944716e-01 7.268130e-01 7.561878e-01 7.826310e-01 8.062080e-01 8.270077e-01 8.451368e-01 8.607142e-01 8.738654e-01 8.847185e-01 8.934006e-01 3.474096e-02 8.803401e-02 1.421409e-01 1.966144e-01 2.510002e-01 3.048499e-01 3.577330e-01 4.092469e-01 4.590264e-01 5.067500e-01 5.521452e-01 5.949914e-01 6.351199e-01 6.724134e-01 7.068026e-01 7.382624e-01 7.668064e-01 7.924814e-01 8.153612e-01 8.355407e-01 8.531299e-01 8.682486e-01 8.810219e-01 8.915760e-01 9.000351e-01 3.474096e-02 8.803401e-02 1.421409e-01 1.966144e-01 2.510002e-01 3.048499e-01 3.577330e-01 4.092469e-01 4.590264e-01 5.067500e-01 5.521452e-01 5.949914e-01 6.351199e-01 6.724134e-01 7.068026e-01 7.382624e-01 7.668064e-01 7.924814e-01 8.153612e-01 8.355407e-01 8.531299e-01 8.682486e-01 8.810219e-01 8.915760e-01 9.000351e-01 1.731648e-02 7.037440e-02 1.243728e-01 1.788443e-01 2.333420e-01 2.874213e-01 3.406520e-01 3.926285e-01 4.429797e-01 4.913755e-01 5.375331e-01 5.812196e-01 6.222535e-01 6.605042e-01 6.958893e-01 7.283712e-01 7.579524e-01 7.846694e-01 8.085877e-01 8.297951e-01 8.483963e-01 8.645073e-01 8.782508e-01 8.897518e-01 8.991343e-01 9.065189e-01 1.731648e-02 7.037440e-02 1.243728e-01 1.788443e-01 2.333420e-01 2.874213e-01 3.406520e-01 3.926285e-01 4.429797e-01 4.913755e-01 5.375331e-01 5.812196e-01 6.222535e-01 6.605042e-01 6.958893e-01 7.283712e-01 7.579524e-01 7.846694e-01 8.085877e-01 8.297951e-01 8.483963e-01 8.645073e-01 8.782508e-01 8.897518e-01 8.991343e-01 9.065189e-01 3.505797e-02 8.871169e-02 1.430369e-01 1.976051e-01 2.519832e-01 3.057458e-01 3.584857e-01 4.098238e-01 4.594165e-01 5.069629e-01 5.522082e-01 5.949468e-01 6.350223e-01 6.723265e-01 7.067967e-01 7.384115e-01 7.671863e-01 7.931676e-01 8.164275e-01 8.370580e-01 8.551655e-01 8.708661e-01 8.842807e-01 8.955316e-01 9.047394e-01 9.120204e-01 3.505797e-02 8.871169e-02 1.430369e-01 1.976051e-01 2.519832e-01 3.057458e-01 3.584857e-01 4.098238e-01 4.594165e-01 5.069629e-01 5.522082e-01 5.949468e-01 6.350223e-01 6.723265e-01 7.067967e-01 7.384115e-01 7.671863e-01 7.931676e-01 8.164275e-01 8.370580e-01 8.551655e-01 8.708661e-01 8.842807e-01 8.955316e-01 9.047394e-01 9.120204e-01 1.745101e-02 7.084577e-02 1.250315e-01 1.795623e-01 2.340129e-01 2.879623e-01 3.410045e-01 3.927580e-01 4.428747e-01 4.910458e-01 5.370072e-01 5.805419e-01 6.214815e-01 6.597051e-01 6.951373e-01 7.277447e-01 7.575313e-01 7.845336e-01 8.088149e-01 8.304600e-01 8.495696e-01 8.662554e-01 8.806354e-01 8.928303e-01 9.029600e-01 9.111412e-01 9.174855e-01 1.745101e-02 7.084577e-02 1.250315e-01 1.795623e-01 2.340129e-01 2.879623e-01 3.410045e-01 3.927580e-01 4.428747e-01 4.910458e-01 5.370072e-01 5.805419e-01 6.214815e-01 6.597051e-01 6.951373e-01 7.277447e-01 7.575313e-01 7.845336e-01 8.088149e-01 8.304600e-01 8.495696e-01 8.662554e-01 8.806354e-01 8.928303e-01 9.029600e-01 9.111412e-01 9.174855e-01 3.522006e-02 8.900329e-02 1.433207e-01 1.977659e-01 2.519304e-01 3.054144e-01 3.578365e-01 4.088423e-01 4.581117e-01 5.053644e-01 5.503636e-01 5.929183e-01 6.328836e-01 6.701593e-01 7.046876e-01 7.364494e-01 7.654598e-01 7.917632e-01 8.154280e-01 8.365417e-01 8.552053e-01 8.715293e-01 8.856293e-01 8.976223e-01 9.076241e-01 9.157471e-01 9.220983e-01 3.522006e-02 8.900329e-02 1.433207e-01 1.977659e-01 2.519304e-01 3.054144e-01 3.578365e-01 4.088423e-01 4.581117e-01 5.053644e-01 5.503636e-01 5.929183e-01 6.328836e-01 6.701593e-01 7.046876e-01 7.364494e-01 7.654598e-01 7.917632e-01 8.154280e-01 8.365417e-01 8.552053e-01 8.715293e-01 8.856293e-01 8.976223e-01 9.076241e-01 9.157471e-01 9.220983e-01 1.750815e-02 7.100846e-02 1.251549e-01 1.795266e-01 2.337231e-01 2.873495e-01 3.400263e-01 3.913980e-01 4.411405e-01 4.889671e-01 5.346323e-01 5.779351e-01 6.187191e-01 6.568722e-01 6.923247e-01 7.250456e-01 7.550389e-01 7.823390e-01 8.0