<VTKFile type="UnstructuredGrid" version="0.1" byte_order="LittleEndian">
   <UnstructuredGrid>
      <Piece  NumberOfPoints="960"  NumberOfCells="441">
         <Points>
            <DataArray type="Float32" NumberOfComponents="3" format="ascii">
3.651638e-02 1.984972e-02 7.126851e-03
1.984972e-02 3.651638e-02 7.126851e-03
7.590424e-02 4.257090e-02 3.149339e-02
4.257090e-02 7.590424e-02 3.149339e-02
8.938785e-02 2.272119e-02 1.975808e-02
1.040873e-01 8.742062e-02 8.711216e-02
2.272119e-02 8.938785e-02 1.975808e-02
8.742062e-02 1.040873e-01 8.711216e-02
1.310545e-01 4.772119e-02 5.976820e-02
1.500885e-01 1.167552e-01 1.629022e-01
4.772119e-02 1.310545e-01 5.976820e-02
1.167552e-01 1.500885e-01 1.629022e-01
1.416667e-01 2.500000e-02 3.376872e-02
1.635721e-01 9.690546e-02 1.473551e-01
1.825176e-01 1.658509e-01 2.700428e-01
2.500000e-02 1.416667e-01 3.376872e-02
9.690546e-02 1.635721e-01 1.473551e-01
1.658509e-01 1.825176e-01 2.700428e-01
1.847964e-01 5.146309e-02 8.828664e-02
2.094848e-01 1.261515e-01 2.360973e-01
2.299819e-01 1.966486e-01 3.830273e-01
5.146309e-02 1.847964e-01 8.828664e-02
1.261515e-01 2.094848e-01 2.360973e-01
1.966486e-01 2.299819e-01 3.830273e-01
1.931298e-01 2.646309e-02 4.733974e-02
2.200970e-01 1.034303e-01 2.035839e-01
2.434655e-01 1.767989e-01 3.651381e-01
2.609479e-01 2.442813e-01 5.075289e-01
2.646309e-02 1.931298e-01 4.733974e-02
1.034303e-01 2.200970e-01 2.035839e-01
1.767989e-01 2.434655e-01 3.651381e-01
2.442813e-01 2.609479e-01 5.075289e-01
2.367637e-01 5.343032e-02 1.131163e-01
2.646898e-01 1.313565e-01 2.963601e-01
2.879152e-01 2.045818e-01 4.711704e-01
3.041662e-01 2.708329e-01 6.139784e-01
5.343032e-02 2.367637e-01 1.131163e-01
1.313565e-01 2.646898e-01 2.963601e-01
2.045818e-01 2.879152e-01 4.711704e-01
2.708329e-01 3.041662e-01 6.139784e-01
2.436339e-01 2.696723e-02 5.861738e-02
2.730232e-01 1.063565e-01 2.480605e-01
2.985273e-01 1.818606e-01 4.360127e-01
3.176498e-01 2.509831e-01 5.960526e-01
3.285188e-01 3.118522e-01 7.127314e-01
2.696723e-02 2.436339e-01 5.861738e-02
1.063565e-01 2.730232e-01 2.480605e-01
1.818606e-01 2.985273e-01 4.360127e-01
2.509831e-01 3.176498e-01 5.960526e-01
3.118522e-01 3.285188e-01 7.127314e-01
2.867637e-01 5.343032e-02 1.309562e-01
3.151940e-01 1.318606e-01 3.365401e-01
3.388741e-01 2.055408e-01 5.263037e-01
3.554861e-01 2.721527e-01 6.781222e-01
3.634038e-01 3.300704e-01 7.827969e-01
5.343032e-02 2.867637e-01 1.309562e-01
1.318606e-01 3.151940e-01 3.365401e-01
2.055408e-01 3.388741e-01 5.263037e-01
2.721527e-01 3.554861e-01 6.781222e-01
3.300704e-01 3.634038e-01 7.827969e-01
2.931298e-01 2.646309e-02 6.610435e-02
3.220642e-01 1.053976e-01 2.756303e-01
3.472074e-01 1.805408e-01 4.765548e-01
3.660982e-01 2.494315e-01 6.443109e-01
3.768874e-01 3.102207e-01 7.663477e-01
3.785188e-01 3.618522e-01 8.420109e-01
2.646309e-02 2.931298e-01 6.610435e-02
1.053976e-01 3.220642e-01 2.756303e-01
1.805408e-01 3.472074e-01 4.765548e-01
2.494315e-01 3.660982e-01 6.443109e-01
3.102207e-01 3.768874e-01 7.663477e-01
3.618522e-01 3.785188e-01 8.420109e-01
3.347964e-01 5.146309e-02 1.397696e-01
3.609479e-01 1.276146e-01 3.535998e-01
3.827649e-01 1.994315e-01 5.470106e-01
3.981117e-01 2.647783e-01 7.016126e-01
4.054861e-01 3.221527e-01 8.108242e-01
4.041662e-01 3.708329e-01 8.774594e-01
5.146309e-02 3.347964e-01 1.397696e-01
1.276146e-01 3.609479e-01 3.535998e-01
1.994315e-01 3.827649e-01 5.470106e-01
2.647783e-01 3.981117e-01 7.016126e-01
3.221527e-01 4.054861e-01 8.108242e-01
3.708329e-01 4.041662e-01 8.774594e-01
3.416667e-01 2.500000e-02 6.894431e-02
3.673140e-01 1.006474e-01 2.843386e-01
3.896351e-01 1.729685e-01 4.862868e-01
4.064450e-01 2.397783e-01 6.547103e-01
4.160982e-01 2.994315e-01 7.800605e-01
4.176498e-01 3.509831e-01 8.627031e-01
4.109479e-01 3.942813e-01 9.085922e-01
2.500000e-02 3.416667e-01 6.894431e-02
1.006474e-01 3.673140e-01 2.843386e-01
1.729685e-01 3.896351e-01 4.862868e-01
2.397783e-01 4.064450e-01 6.547103e-01
2.994315e-01 4.160982e-01 7.800605e-01
3.509831e-01 4.176498e-01 8.627031e-01
3.942813e-01 4.109479e-01 9.085922e-01
3.810545e-01 4.772119e-02 1.390493e-01
4.023673e-01 1.190340e-01 3.482448e-01
4.201855e-01 1.868522e-01 5.365502e-01
4.327649e-01 2.494315e-01 6.901513e-01
4.388741e-01 3.055408e-01 8.040650e-01
4.379152e-01 3.545818e-01 8.804281e-01
4.299819e-01 3.966486e-01 9.249087e-01
4.772119e-02 3.810545e-01 1.390493e-01
1.190340e-01 4.023673e-01 3.482448e-01
1.868522e-01 4.201855e-01 5.365502e-01
2.494315e-01 4.327649e-01 6.901513e-01
3.055408e-01 4.388741e-01 8.040650e-01
3.545818e-01 4.379152e-01 8.804281e-01
3.966486e-01 4.299819e-01 9.249087e-01
3.893879e-01 2.272119e-02 6.705118e-02
4.092376e-01 9.257090e-02 2.751708e-01
4.265516e-01 1.598849e-01 4.686831e-01
4.396351e-01 2.229685e-01 6.330273e-01
4.472074e-01 2.805408e-01 7.610058e-01
4.485273e-01 3.318606e-01 8.524315e-01
4.434655e-01 3.767989e-01 9.114554e-01
4.325176e-01 4.158509e-01 9.436432e-01
2.272119e-02 3.893879e-01 6.705118e-02
9.257090e-02 4.092376e-01 2.751708e-01
1.598849e-01 4.265516e-01 4.686831e-01
2.229685e-01 4.396351e-01 6.330273e-01
2.805408e-01 4.472074e-01 7.610058e-01
3.318606e-01 4.485273e-01 8.524315e-01
3.767989e-01 4.434655e-01 9.114554e-01
4.158509e-01 4.325176e-01 9.436432e-01
4.259042e-01 4.257090e-02 1.297451e-01
4.402921e-01 1.069588e-01 3.239457e-01
4.523673e-01 1.690340e-01 5.007641e-01
4.609479e-01 2.276146e-01 6.507410e-01
4.651940e-01 2.818606e-01 7.695990e-01
4.646898e-01 3.313565e-01 8.575958e-01
4.594848e-01 3.761515e-01 9.177680e-01
4.500885e-01 4.167552e-01 9.541407e-01
4.257090e-02 4.259042e-01 1.297451e-01
1.069588e-01 4.402921e-01 3.239457e-01
1.690340e-01 4.523673e-01 5.007641e-01
2.276146e-01 4.609479e-01 6.507410e-01
2.818606e-01 4.651940e-01 7.695990e-01
3.313565e-01 4.646898e-01 8.575958e-01
3.761515e-01 4.594848e-01 9.177680e-01
4.167552e-01 4.500885e-01 9.541407e-01
4.365164e-01 1.984972e-02 6.107899e-02
4.486254e-01 8.195876e-02 2.513422e-01
4.592376e-01 1.425709e-01 4.295303e-01
4.673140e-01 2.006474e-01 5.863246e-01
4.720642e-01 2.553976e-01 7.162257e-01
4.730232e-01 3.063565e-01 8.176440e-01
4.700970e-01 3.534303e-01 8.918923e-01
4.635721e-01 3.969055e-01 9.418005e-01
4.540873e-01 4.374206e-01 9.705457e-01
1.984972e-02 4.365164e-01 6.107899e-02
8.195876e-02 4.486254e-01 2.513422e-01
1.425709e-01 4.592376e-01 4.295303e-01
2.006474e-01 4.673140e-01 5.863246e-01
2.553976e-01 4.720642e-01 7.162257e-01
3.063565e-01 4.730232e-01 8.176440e-01
3.534303e-01 4.700970e-01 8.918923e-01
3.969055e-01 4.635721e-01 9.418005e-01
4.374206e-01 4.540873e-01 9.705457e-01
4.698497e-01 3.651638e-02 1.139564e-01
4.759042e-01 9.257090e-02 2.859162e-01
4.810545e-01 1.477212e-01 4.468065e-01
4.847964e-01 2.014631e-01 5.908216e-01
4.867637e-01 2.534303e-01 7.140659e-01
4.867637e-01 3.034303e-01 8.145962e-01
4.847964e-01 3.514631e-01 8.920607e-01
4.810545e-01 3.977212e-01 9.471337e-01
4.759042e-01 4.425709e-01 9.809441e-01
3.651638e-02 4.698497e-01 1.139564e-01
9.257090e-02 4.759042e-01 2.859162e-01
1.477212e-01 4.810545e-01 4.468065e-01
2.014631e-01 4.847964e-01 5.908216e-01
2.534303e-01 4.867637e-01 7.140659e-01
3.034303e-01 4.867637e-01 8.145962e-01
3.514631e-01 4.847964e-01 8.920607e-01
3.977212e-01 4.810545e-01 9.471337e-01
4.425709e-01 4.759042e-01 9.809441e-01
4.833333e-01 1.666667e-02 5.226015e-02
4.865164e-01 6.984972e-02 2.174899e-01
4.893879e-01 1.227212e-01 3.758517e-01
4.916667e-01 1.750000e-01 5.223190e-01
4.931298e-01 2.264631e-01 6.527825e-01
4.936339e-01 2.769672e-01 7.642494e-01
4.931298e-01 3.264631e-01 8.548296e-01
4.916667e-01 3.750000e-01 9.235577e-01
4.893879e-01 4.227212e-01 9.701279e-01
4.865164e-01 4.698497e-01 9.946166e-01
1.666667e-02 4.833333e-01 5.226015e-02
6.984972e-02 4.865164e-01 2.174899e-01
1.227212e-01 4.893879e-01 3.758517e-01
1.750000e-01 4.916667e-01 5.223190e-01
2.264631e-01 4.931298e-01 6.527825e-01
2.769672e-01 4.936339e-01 7.642494e-01
3.264631e-01 4.931298e-01 8.548296e-01
3.750000e-01 4.916667e-01 9.235577e-01
4.227212e-01 4.893879e-01 9.701279e-01
4.698497e-01 4.865164e-01 9.946166e-01
5.134836e-01 3.015028e-02 9.449616e-02
5.106121e-01 7.727881e-02 2.402683e-01
5.083333e-01 1.250000e-01 3.825528e-01
5.068702e-01 1.735369e-01 5.184531e-01
5.063661e-01 2.230328e-01 6.446063e-01
5.068702e-01 2.735369e-01 7.572341e-01
5.083333e-01 3.250000e-01 8.523439e-01
5.106121e-01 3.772788e-01 9.260746e-01
5.134836e-01 4.301503e-01 9.751366e-01
5.166667e-01 4.833333e-01 9.972523e-01
3.015028e-02 5.134836e-01 9.449616e-02
7.727881e-02 5.106121e-01 2.402683e-01
1.250000e-01 5.083333e-01 3.825528e-01
1.735369e-01 5.068702e-01 5.184531e-01
2.230328e-01 5.063661e-01 6.446063e-01
2.735369e-01 5.068702e-01 7.572341e-01
3.250000e-01 5.083333e-01 8.523439e-01
3.772788e-01 5.106121e-01 9.260746e-01
4.301503e-01 5.134836e-01 9.751366e-01
4.833333e-01 5.166667e-01 9.972523e-01
5.301503e-01 1.348362e-02 4.215431e-02
5.240958e-01 5.742910e-02 1.789284e-01
5.189455e-01 1.022788e-01 3.152588e-01
5.152036e-01 1.485369e-01 4.493769e-01
5.132363e-01 1.965697e-01 5.785312e-01
5.132363e-01 2.465697e-01 6.988392e-01
5.152036e-01 2.985369e-01 8.053845e-01
5.189455e-01 3.522788e-01 8.926465e-01
5.240958e-01 4.074291e-01 9.552598e-01
5.301503e-01 4.634836e-01 9.889654e-01
5.365164e-01 5.198497e-01 9.914853e-01
1.348362e-02 5.301503e-01 4.215431e-02
5.742910e-02 5.240958e-01 1.789284e-01
1.022788e-01 5.189455e-01 3.152588e-01
1.485369e-01 5.152036e-01 4.493769e-01
1.965697e-01 5.132363e-01 5.785312e-01
2.465697e-01 5.132363e-01 6.988392e-01
2.985369e-01 5.152036e-01 8.053845e-01
3.522788e-01 5.189455e-01 8.926465e-01
4.074291e-01 5.240958e-01 9.552598e-01
4.634836e-01 5.301503e-01 9.889654e-01
5.198497e-01 5.365164e-01 9.914853e-01
5.574291e-01 2.409576e-02 7.440234e-02
5.459127e-01 6.257938e-02 1.933087e-01
5.364279e-01 1.030945e-01 3.161682e-01
5.299030e-01 1.465697e-01 4.424040e-01
5.269768e-01 1.936435e-01 5.694624e-01
5.279358e-01 2.446024e-01 6.923391e-01
5.326860e-01 2.993526e-01 8.035612e-01
5.407624e-01 3.574291e-01 8.939724e-01
[...]
         <PointData Scalars="count">
            <DataArray type="Float64" Name="solution" format="ascii">
7.126851e-03 7.126851e-03 3.149339e-02 3.149339e-02 1.975808e-02 8.711216e-02 1.975808e-02 8.711216e-02 5.976820e-02 1.629022e-01 5.976820e-02 1.629022e-01 3.376872e-02 1.473551e-01 2.700428e-01 3.376872e-02 1.473551e-01 2.700428e-01 8.828664e-02 2.360973e-01 3.830273e-01 8.828664e-02 2.360973e-01 3.830273e-01 4.733974e-02 2.035839e-01 3.651381e-01 5.075289e-01 4.733974e-02 2.035839e-01 3.651381e-01 5.075289e-01 1.131163e-01 2.963601e-01 4.711704e-01 6.139784e-01 1.131163e-01 2.963601e-01 4.711704e-01 6.139784e-01 5.861738e-02 2.480605e-01 4.360127e-01 5.960526e-01 7.127314e-01 5.861738e-02 2.480605e-01 4.360127e-01 5.960526e-01 7.127314e-01 1.309562e-01 3.365401e-01 5.263037e-01 6.781222e-01 7.827969e-01 1.309562e-01 3.365401e-01 5.263037e-01 6.781222e-01 7.827969e-01 6.610435e-02 2.756303e-01 4.765548e-01 6.443109e-01 7.663477e-01 8.420109e-01 6.610435e-02 2.756303e-01 4.765548e-01 6.443109e-01 7.663477e-01 8.420109e-01 1.397696e-01 3.535998e-01 5.470106e-01 7.016126e-01 8.108242e-01 8.774594e-01 1.397696e-01 3.535998e-01 5.470106e-01 7.016126e-01 8.108242e-01 8.774594e-01 6.894431e-02 2.843386e-01 4.862868e-01 6.547103e-01 7.800605e-01 8.627031e-01 9.085922e-01 6.894431e-02 2.843386e-01 4.862868e-01 6.547103e-01 7.800605e-01 8.627031e-01 9.085922e-01 1.390493e-01 3.482448e-01 5.365502e-01 6.901513e-01 8.040650e-01 8.804281e-01 9.249087e-01 1.390493e-01 3.482448e-01 5.365502e-01 6.901513e-01 8.040650e-01 8.804281e-01 9.249087e-01 6.705118e-02 2.751708e-01 4.686831e-01 6.330273e-01 7.610058e-01 8.524315e-01 9.114554e-01 9.436432e-01 6.705118e-02 2.751708e-01 4.686831e-01 6.330273e-01 7.610058e-01 8.524315e-01 9.114554e-01 9.436432e-01 1.297451e-01 3.239457e-01 5.007641e-01 6.507410e-01 7.695990e-01 8.575958e-01 9.177680e-01 9.541407e-01 1.297451e-01 3.239457e-01 5.007641e-01 6.507410e-01 7.695990e-01 8.575958e-01 9.177680e-01 9.541407e-01 6.107899e-02 2.513422e-01 4.295303e-01 5.863246e-01 7.162257e-01 8.176440e-01 8.918923e-01 9.418005e-01 9.705457e-01 6.107899e-02 2.513422e-01 4.295303e-01 5.863246e-01 7.162257e-01 8.176440e-01 8.918923e-01 9.418005e-01 9.705457e-01 1.139564e-01 2.859162e-01 4.468065e-01 5.908216e-01 7.140659e-01 8.145962e-01 8.920607e-01 9.471337e-01 9.809441e-01 1.139564e-01 2.859162e-01 4.468065e-01 5.908216e-01 7.140659e-01 8.145962e-01 8.920607e-01 9.471337e-01 9.809441e-01 5.226015e-02 2.174899e-01 3.758517e-01 5.223190e-01 6.527825e-01 7.642494e-01 8.548296e-01 9.235577e-01 9.701279e-01 9.946166e-01 5.226015e-02 2.174899e-01 3.758517e-01 5.223190e-01 6.527825e-01 7.642494e-01 8.548296e-01 9.235577e-01 9.701279e-01 9.946166e-01 9.449616e-02 2.402683e-01 3.825528e-01 5.184531e-01 6.446063e-01 7.572341e-01 8.523439e-01 9.260746e-01 9.751366e-01 9.972523e-01 9.449616e-02 2.402683e-01 3.825528e-01 5.184531e-01 6.446063e-01 7.572341e-01 8.523439e-01 9.260746e-01 9.751366e-01 9.972523e-01 4.215431e-02 1.789284e-01 3.152588e-01 4.493769e-01 5.785312e-01 6.988392e-01 8.053845e-01 8.926465e-01 9.552598e-01 9.889654e-01 9.914853e-01 4.215431e-02 1.789284e-01 3.152588e-01 4.493769e-01 5.785312e-01 6.988392e-01 8.053845e-01 8.926465e-01 9.552598e-01 9.889654e-01 9.914853e-01 7.440234e-02 1.933087e-01 3.161682e-01 4.424040e-01 5.694624e-01 6.923391e-01 8.035612e-01 8.939724e-01 9.544595e-01 9.782643e-01 9.630152e-01 7.440234e-02 1.933087e-01 3.161682e-01 4.424040e-01 5.694624e-01 6.923391e-01 8.035612e-01 8.939724e-01 9.544595e-01 9.782643e-01 9.630152e-01 3.235281e-02 1.409703e-01 2.553787e-01 3.762704e-01 5.022626e-01 6.291291e-01 7.493700e-01 8.526446e-01 9.275090e-01 9.643302e-01 9.583679e-01 9.115056e-01 3.235281e-02 1.409703e-01 2.553787e-01 3.762704e-01 5.022626e-01 6.291291e-01 7.493700e-01 8.526446e-01 9.275090e-01 9.643302e-01 9.583679e-01 9.115056e-01 5.644238e-02 1.508528e-01 2.554463e-01 3.715208e-01 4.974275e-01 6.273849e-01 7.508260e-01 8.532462e-01 9.193218e-01 9.378274e-01 9.061474e-01 8.316117e-01 5.644238e-02 1.508528e-01 2.554463e-01 3.715208e-01 4.974275e-01 6.273849e-01 7.508260e-01 8.532462e-01 9.193218e-01 9.378274e-01 9.061474e-01 8.316117e-01 2.418235e-02 1.082544e-01 2.031080e-01 3.113271e-01 4.327557e-01 5.630722e-01 6.926265e-01 8.065615e-01 8.874383e-01 9.205357e-01 8.997855e-01 8.307838e-01 7.285813e-01 2.418235e-02 1.082544e-01 2.031080e-01 3.113271e-01 4.327557e-01 5.630722e-01 6.926265e-01 8.065615e-01 8.874383e-01 9.205357e-01 8.997855e-01 8.307838e-01 7.285813e-01 4.264312e-02 1.174541e-01 2.068013e-01 3.133794e-01 4.362220e-01 5.688792e-01 6.981638e-01 8.050182e-01 8.690387e-01 8.761058e-01 8.252532e-01 7.298240e-01 6.114915e-01 4.264312e-02 1.174541e-01 2.068013e-01 3.133794e-01 4.362220e-01 5.688792e-01 6.981638e-01 8.050182e-01 8.690387e-01 8.761058e-01 8.252532e-01 7.298240e-01 6.114915e-01 1.845155e-02 8.403442e-02 1.636070e-01 2.610410e-01 3.769913e-01 5.069105e-01 6.393199e-01 7.557419e-01 8.342359e-01 8.569752e-01 8.186562e-01 7.299909e-01 6.130056e-01 4.910980e-01 1.845155e-02 8.403442e-02 1.636070e-01 2.610410e-01 3.769913e-01 5.069105e-01 6.393199e-01 7.557419e-01 8.342359e-01 8.569752e-01 8.186562e-01 7.299909e-01 6.130056e-01 4.910980e-01 3.389545e-02 9.552909e-02 1.739396e-01 2.724656e-01 3.902573e-01 5.200349e-01 6.466115e-01 7.480999e-01 8.017320e-01 7.933948e-01 7.255536e-01 6.171835e-01 4.947538e-01 3.805414e-01 3.389545e-02 9.552909e-02 1.739396e-01 2.724656e-01 3.902573e-01 5.200349e-01 6.466115e-01 7.480999e-01 8.017320e-01 7.933948e-01 7.255536e-01 6.171835e-01 4.947538e-01 3.805414e-01 1.528542e-02 6.946147e-02 1.390581e-01 2.283084e-01 3.379190e-01 4.627156e-01 5.897498e-01 6.985072e-01 7.654089e-01 7.728469e-01 7.184980e-01 6.179615e-01 4.975646e-01 3.820922e-01 2.858953e-01 1.528542e-02 6.946147e-02 1.390581e-01 2.283084e-01 3.379190e-01 4.627156e-01 5.897498e-01 6.985072e-01 7.654089e-01 7.728469e-01 7.184980e-01 6.179615e-01 4.975646e-01 3.820922e-01 2.858953e-01 2.971242e-02 8.449363e-02 1.563389e-01 2.480946e-01 3.581899e-01 4.783369e-01 5.923788e-01 6.782334e-01 7.145276e-01 6.903433e-01 6.121918e-01 5.021305e-01 3.872409e-01 2.878018e-01 2.117219e-01 2.971242e-02 8.449363e-02 1.563389e-01 2.480946e-01 3.581899e-01 4.783369e-01 5.923788e-01 6.782334e-01 7.145276e-01 6.903433e-01 6.121918e-01 5.021305e-01 3.872409e-01 2.878018e-01 2.117219e-01 1.409011e-02 6.301879e-02 1.273842e-01 2.105099e-01 3.121214e-01 4.259986e-01 5.384494e-01 6.292650e-01 6.769274e-01 6.675639e-01 6.029970e-01 5.015135e-01 3.894677e-01 2.892663e-01 2.117962e-01 1.566145e-01 1.409011e-02 6.301879e-02 1.273842e-01 2.105099e-01 3.121214e-01 4.259986e-01 5.384494e-01 6.292650e-01 6.769274e-01 6.675639e-01 6.029970e-01 5.015135e-01 3.894677e-01 2.892663e-01 2.117962e-01 1.566145e-01 2.824317e-02 8.024361e-02 1.479914e-01 2.325869e-01 3.309341e-01 4.339238e-01 5.260988e-01 5.883463e-01 6.042888e-01 5.682234e-01 4.895560e-01 3.895461e-01 2.916598e-01 2.119314e-01 1.550986e-01 1.170581e-01 2.824317e-02 8.024361e-02 1.479914e-01 2.325869e-01 3.309341e-01 4.339238e-01 5.260988e-01 5.883463e-01 6.042888e-01 5.682234e-01 4.895560e-01 3.895461e-01 2.916598e-01 2.119314e-01 1.550986e-01 1.170581e-01 1.367576e-02 6.041774e-02 1.215061e-01 1.981634e-01 2.882425e-01 3.844654e-01 4.737606e-01 5.390314e-01 5.642047e-01 5.413169e-01 4.756692e-01 3.847903e-01 2.908563e-01 2.113116e-01 1.535158e-01 1.154396e-01 9.003191e-02 1.367576e-02 6.041774e-02 1.215061e-01 1.981634e-01 2.882425e-01 3.844654e-01 4.737606e-01 5.390314e-01 5.642047e-01 5.413169e-01 4.756692e-01 3.847903e-01 2.908563e-01 2.113116e-01 1.535158e-01 1.154396e-01 9.003191e-02 2.662680e-02 7.550380e-02 1.374357e-01 2.111073e-01 2.917746e-01 3.704497e-01 4.345061e-01 4.704948e-01 4.689501e-01 4.291875e-01 3.609562e-01 2.810774e-01 2.065951e-01 1.485183e-01 1.094780e-01 8.549366e-02 6.960785e-02 2.662680e-02 7.550380e-02 1.374357e-01 2.111073e-01 2.917746e-01 3.704497e-01 4.345061e-01 4.704948e-01 4.689501e-01 4.291875e-01 3.609562e-01 2.810774e-01 2.065951e-01 1.485183e-01 1.094780e-01 8.549366e-02 6.960785e-02 1.253339e-02 5.530486e-02 1.101033e-01 1.756987e-01 2.481001e-01 3.198649e-01 3.804334e-01 4.181567e-01 4.240104e-01 3.956834e-01 3.396655e-01 2.694665e-01 2.004447e-01 1.441151e-01 1.050154e-01 8.114380e-02 6.668640e-02 5.498019e-02 1.253339e-02 5.530486e-02 1.101033e-01 1.756987e-01 2.481001e-01 3.198649e-01 3.804334e-01 4.181567e-01 4.240104e-01 3.956834e-01 3.396655e-01 2.694665e-01 2.004447e-01 1.441151e-01 1.050154e-01 8.114380e-02 6.668640e-02 5.498019e-02 2.168623e-02 6.148973e-02 1.102978e-01 1.651105e-01 2.207750e-01 2.701959e-01 3.053905e-01 3.194858e-01 3.091619e-01 2.764400e-01 2.286276e-01 1.760565e-01 1.285573e-01 9.240363e-02 6.906988e-02 5.594644e-02 4.815306e-02 4.037517e-02 2.168623e-02 6.148973e-02 1.102978e-01 1.651105e-01 2.207750e-01 2.701959e-01 3.053905e-01 3.194858e-01 3.091619e-01 2.764400e-01 2.286276e-01 1.760565e-01 1.285573e-01 9.240363e-02 6.906988e-02 5.594644e-02 4.815306e-02 4.037517e-02 9.217179e-03 4.091842e-02 8.065416e-02 1.258958e-01 1.724129e-01 2.145288e-01 2.459218e-01 2.610385e-01 2.568242e-01 2.340898e-01 1.977262e-01 1.553925e-01 1.151060e-01 8.280272e-02 6.091629e-02 4.837664e-02 4.168241e-02 3.634068e-02 2.807708e-02 9.217179e-03 4.091842e-02 8.065416e-02 1.258958e-01 1.724129e-01 2.145288e-01 2.459218e-01 2.610385e-01 2.568242e-01 2.340898e-01 1.977262e-01 1.553925e-01 1.151060e-01 8.280272e-02 6.091629e-02 4.837664e-02 4.168241e-02 3.634068e-02 2.807708e-02 1.082287e-02 3.075398e-02 5.451363e-02 7.983297e-02 1.037215e-01 1.229316e-01 1.345876e-01 1.368706e-01 1.295653e-01 1.142457e-01 9.395903e-02 7.245418e-02 5.319512e-02 3.849941e-02 2.907834e-02 2.407227e-02 2.148112e-02 1.878693e-02 1.357143e-02 1.082287e-02 3.075398e-02 5.451363e-02 7.983297e-02 1.037215e-01 1.229316e-01 1.345876e-01 1.368706e-01 1.295653e-01 1.142457e-01 9.395903e-02 7.245418e-02 5.319512e-02 3.849941e-02 2.907834e-02 2.407227e-02 2.148112e-02 1.878693e-02 1.357143e-02 2.738306e-03 1.234496e-02 2.428481e-02 3.743337e-02 5.024363e-02 6.101348e-02 6.821242e-02 7.080849e-02 6.851801e-02 6.190106e-02 5.225636e-02 4.132569e-02 3.088192e-02 2.231683e-02 1.634450e-02 1.289224e-02 1.119059e-02 1.001650e-02 8.012506e-03 4.004469e-03 2.738306e-03 1.234496e-02 2.428481e-02 3.743337e-02 5.024363e-02 6.101348e-02 6.821242e-02 7.080849e-02 6.851801e-02 6.190106e-02 5.225636e-02 4.132569e-02 3.088192e-02 2.231683e-02 1.634450e-02 1.289224e-02 1.119059e-02 1.001650e-02 8.012506e-03 4.004469e-03 9.471377e-08 9.471377e-08 -5.752549e-07 -5.752549e-07 -1.490979e-06 -1.490979e-06 -2.418361e-06 -2.418361e-06 -3.051789e-06 -3.051789e-06 -3.179248e-06 -3.179248e-06 -2.787028e-06 -2.787028e-06 -2.063686e-06 -2.063686e-06 -1.287576e-06 -1.287576e-06 -6.761598e-07 -6.761598e-07 -3.020914e-07 -3.020914e-07 -1.202672e-07 -1.202672e-07 -4.492453e-08 -4.492453e-08 -9.734501e-09 -9.734501e-09 8.832334e-09 8.832334e-09 4.760139e-09 4.760139e-09 -4.020697e-08 -4.020697e-08 -1.405763e-07 -1.405763e-07 -1.970281e-07 -1.970281e-07 -1.265638e-07 -9.015963e-08 -3.023474e-07 -6.253970e-07 -1.160905e-06 -1.833717e-06 -2.428435e-06 -2.715647e-06 -2.577118e-06 -2.068228e-06 -1.377383e-06 -7.297218e-07 -2.898578e-07 -8.804826e-08 -4.069220e-08 -4.813070e-08 -5.472892e-08 -4.190126e-08 -9.912685e-09 3.007865e-08 2.603294e-08 -9.015963e-08 -1.265638e-07 -3.023474e-07 -6.253970e-07 -1.160905e-06 -1.833717e-06 -2.428435e-06 -2.715647e-06 -2.577118e-06 -2.068228e-06 -1.377383e-06 -7.297218e-07 -2.898578e-07 -8.804826e-08 -4.069220e-08 -4.813070e-08 -5.472892e-08 -4.190126e-08 -9.912685e-09 3.007865e-08 2.603294e-08 0.000000e+00 0.000000e+00 0.000000e+00 0.000000e+00 0.000000e+00 0.000000e+00 0.000000e+00 0.000000e+00 0.000000e+00 0.000000e+00 0.000000e+00 0.000000e+00 0.000000e+00 0.000000e+00 0.000000e+00 0.000000e+00 0.000000e+00 0.000000e+00 0.000000e+00 0.000000e+00 0.000000e+00 0.000000e+00 0.000000e+00 0.000000e+00 0.000000e+00 0.000000e+00 0.000000e+00 0.000000e+00 0.000000e+00 0.000000e+00 0.000000e+00 0.000000e+00 0.000000e+00 0.000000e+00 0.000000e+00 0.000000e+00 0.000000e+00 0.000000e+00 -2.470485e-22 1.915770e-17 3.784367e-17 5.559781e-17 7.198294e-17 8.659562e-17 9.907602e-17 1.091168e-16 1.164708e-16 1.209570e-16 1.224647e-16 1.209570e-16 1.164708e-16 1.091168e-16 9.907602e-17 8.659562e-17 7.198294e-17 5.559781e-17 3.784367e-17 1.915770e-17 -4.940970e-22 -2.470485e-22 0.000000e+00 1.915770e-17 3.784367e-17 5.559781e-17 7.198294e-17 8.659562e-17 9.907602e-17 1.091168e-16 1.164708e-16 1.209570e-16 1.224647e-16 1.209570e-16 1.164708e-16 1.091168e-16 9.907602e-17 8.659562e-17 7.198294e-17 5.559781e-17 3.784367e-17 1.915770e-17 
            </DataArray>
         </PointData>
         <Cells>
            <DataArray type="Int32" Name="connectivity" format="ascii">
0 1 801 881 800 
4 2 0 800 880 802 
0 2 5 7 3 1 
1 3 6 803 883 801 
12 8 4 802 882 804 
2 4 8 13 9 5 
5 9 14 17 11 7 
3 7 11 16 10 6 
6 10 15 805 885 803 
24 18 12 804 884 806 
8 12 18 25 19 13 
9 13 19 26 20 14 
14 20 27 31 23 17 
11 17 23 30 22 16 
10 16 22 29 21 15 
15 21 28 807 887 805 
40 32 24 806 886 808 
18 24 32 41 33 25 
19 25 33 42 34 26 
20 26 34 43 35 27 
27 35 44 49 39 31 
23 31 39 48 38 30 
22 30 38 47 37 29 
21 29 37 46 36 28 
28 36 45 809 889 807 
60 50 40 808 888 810 
32 40 50 61 51 41 
33 41 51 62 52 42 
34 42 52 63 53 43 
35 43 53 64 54 44 
44 54 65 71 59 49 
39 49 59 70 58 48 
38 48 58 69 57 47 
37 47 57 68 56 46 
36 46 56 67 55 45 
45 55 66 811 891 809 
84 72 60 810 890 812 
50 60 72 85 73 61 
51 61 73 86 74 62 
52 62 74 87 75 63 
53 63 75 88 76 64 
54 64 76 89 77 65 
65 77 90 97 83 71 
59 71 83 96 82 70 
58 70 82 95 81 69 
57 69 81 94 80 68 
56 68 80 93 79 67 
55 67 79 92 78 66 
66 78 91 813 893 811 
112 98 84 812 892 814 
72 84 98 113 99 85 
73 85 99 114 100 86 
74 86 100 115 101 87 
75 87 101 116 102 88 
76 88 102 117 103 89 
77 89 103 118 104 90 
90 104 119 127 111 97 
83 97 111 126 110 96 
82 96 110 125 109 95 
81 95 109 124 108 94 
80 94 108 123 107 93 
79 93 107 122 106 92 
78 92 106 121 105 91 
91 105 120 815 895 813 
144 128 112 814 894 816 
98 112 128 145 129 113 
99 113 129 146 130 114 
100 114 130 147 131 115 
101 115 131 148 132 116 
102 116 132 149 133 117 
103 117 133 150 134 118 
104 118 134 151 135 119 
119 135 152 161 143 127 
111 127 143 160 142 126 
110 126 142 159 141 125 
109 125 141 158 140 124 
108 124 140 157 139 123 
107 123 139 156 138 122 
106 122 138 155 137 121 
105 121 137 154 136 120 
120 136 153 817 897 815 
180 162 144 816 896 818 
128 144 162 181 163 145 
129 145 163 182 164 146 
130 146 164 183 165 147 
131 147 165 184 166 148 
132 148 166 185 167 149 
133 149 167 186 168 150 
134 150 168 187 169 151 
135 151 169 188 170 152 
152 170 189 199 179 161 
143 161 179 198 178 160 
142 160 178 197 177 159 
141 159 177 196 176 158 
140 158 176 195 175 157 
139 157 175 194 174 156 
138 156 174 193 173 155 
137 155 173 192 172 154 
136 154 172 191 171 153 
153 171 190 819 899 817 
220 200 180 818 898 820 
162 180 200 221 201 181 
163 181 201 222 202 182 
164 182 202 223 203 183 
165 183 203 224 204 184 
166 184 204 225 205 185 
167 185 205 226 206 186 
168 186 206 227 207 187 
169 187 207 228 208 188 
170 188 208 229 209 189 
189 209 230 241 219 199 
179 199 219 240 218 198 
178 198 218 239 217 197 
177 197 217 238 216 196 
176 196 216 237 215 195 
175 195 215 236 214 194 
174 194 214 235 213 193 
173 193 213 234 212 192 
172 192 212 233 211 191 
171 191 211 232 210 190 
190 210 231 821 901 819 
264 242 220 820 900 822 
200 220 242 265 243 221 
201 221 243 266 244 222 
202 222 244 267 245 223 
203 223 245 268 246 224 
204 224 246 269 247 225 
205 225 247 270 248 226 
206 226 248 271 249 227 
207 227 249 272 250 228 
208 228 250 273 251 229 
209 229 251 274 252 230 
230 252 275 287 263 241 
219 241 263 286 262 240 
218 240 262 285 261 239 
217 239 261 284 260 238 
216 238 260 283 259 237 
215 237 259 282 258 236 
214 236 258 281 257 235 
213 235 257 280 256 234 
212 234 256 279 255 233 
211 233 255 278 254 232 
210 232 254 277 253 231 
231 253 276 823 903 821 
312 288 264 822 902 824 
242 264 288 313 289 265 
243 265 289 314 290 266 
244 266 290 315 291 267 
245 267 291 316 292 268 
246 268 292 317 293 269 
247 269 293 318 294 270 
248 270 294 319 295 271 
249 271 295 320 296 272 
250 272 296 321 297 273 
251 273 297 322 298 274 
252 274 298 323 299 275 
275 299 324 337 311 287 
263 287 311 336 310 286 
262 286 310 335 309 285 
261 285 309 334 308 284 
260 284 308 333 307 283 
259 283 307 332 306 282 
258 282 306 331 305 281 
257 281 305 330 304 280 
256 280 304 329 303 279 
255 279 303 328 302 278 
254 278 302 327 301 277 
253 277 301 326 300 276 
276 300 325 825 905 823 
364 338 312 824 904 826 
288 312 338 365 339 313 
289 313 339 366 340 314 
290 314 340 367 341 315 
291 315 341 368 342 316 
292 316 342 369 343 317 
293 317 343 370 344 318 
294 318 344 371 345 319 
295 319 345 372 346 320 
296 320 346 373 347 321 
297 321 347 374 348 322 
298 322 348 375 349 323 
299 323 349 376 350 324 
324 350 377 391 363 337 
311 337 363 390 362 336 
310 336 362 389 361 335 
309 335 361 388 360 334 
308 334 360 387 359 333 
307 333 359 386 358 332 
306 332 358 385 357 331 
305 331 357 384 356 330 
304 330 356 383 355 329 
303 329 355 382 354 328 
302 328 354 381 353 327 
301 327 353 380 352 326 
300 326 352 379 351 325 
325 351 378 827 907 825 
420 392 364 826 906 828 
338 364 392 421 393 365 
339 365 393 422 394 366 
340 366 394 423 395 367 
341 367 395 424 396 368 
342 368 396 425 397 369 
343 369 397 426 398 370 
344 370 398 427 399 371 
345 371 399 428 400 372 
346 372 400 429 401 373 
347 373 401 430 402 374 
348 374 402 431 403 375 
349 375 403 432 404 376 
350 376 404 433 405 377 
377 405 434 449 419 391 
363 391 419 448 418 390 
362 390 418 447 417 389 
361 389 417 446 416 388 
360 388 416 445 415 387 
359 387 415 444 414 386 
358 386 414 443 413 385 
357 385 413 442 412 384 
356 384 412 441 411 383 
355 383 411 440 410 382 
354 382 410 439 409 381 
353 381 409 438 408 380 
352 380 408 437 407 379 
351 379 407 436 406 378 
378 406 435 829 909 827 
480 450 420 828 908 830 
392 420 450 481 451 421 
393 421 451 482 452 422 
394 422 452 483 453 423 
395 423 453 484 454 424 
396 424 454 485 455 425 
397 425 455 486 456 426 
398 426 456 487 457 427 
399 427 457 488 458 428 
400 428 458 489 459 429 
401 429 459 490 460 430 
402 430 460 491 461 431 
403 431 461 492 462 432 
404 432 462 493 463 433 
405 433 463 494 464 434 
434 464 495 511 479 449 
419 449 479 510 478 448 
418 448 478 509 477 447 
417 447 477 508 476 446 
416 446 476 507 475 445 
415 445 475 506 474 444 
414 444 474 505 473 443 
413 443 473 504 472 442 
412 442 472 503 471 441 
411 441 471 502 470 440 
410 440 470 501 469 439 
409 439 469 500 468 438 
408 438 468 499 467 437 
407 437 467 498 466 436 
406 436 466 497 465 435 
435 465 496 831 911 829 
544 512 480 830 910 832 
450 480 512 545 513 481 
451 481 513 546 514 482 
452 482 514 547 515 483 
453 483 515 548 516 484 
454 484 516 549 517 485 
455 485 517 550 518 486 
456 486 518 551 519 487 
457 487 519 552 520 488 
458 488 520 553 521 489 
459 489 521 554 522 490 
460 490 522 555 523 491 
461 491 523 556 524 492 
462 492 524 557 525 493 
463 493 525 558 526 494 
464 494 526 559 527 495 
495 527 560 577 543 511 
479 511 543 576 542 510 
478 510 542 575 541 509 
477 509 541 574 540 508 
476 508 540 573 539 507 
475 507 539 572 538 506 
474 506 538 571 537 505 
473 505 537 570 536 504 
472 504 536 569 535 503 
471 503 535 568 534 502 
470 502 534 567 533 501 
469 501 533 566 532 500 
468 500 532 565 531 499 
467 499 531 564 530 498 
466 498 530 563 529 497 
465 497 529 562 528 496 
496 528 561 833 913 831 
612 578 544 832 912 834 
512 544 578 613 579 545 
513 545 579 614 580 546 
514 546 580 615 581 547 
515 547 581 616 582 548 
516 548 582 617 583 549 
517 549 583 618 584 550 
518 550 584 619 585 551 
519 551 585 620 586 552 
520 552 586 621 587 553 
521 553 587 622 588 554 
522 554 588 623 589 555 