<VTKFile type="UnstructuredGrid" version="0.1" byte_order="LittleEndian">
   <UnstructuredGrid>
      <Piece  NumberOfPoints="3520"  NumberOfCells="1681">
         <Points>
            <DataArray type="Float32" NumberOfComponents="3" format="ascii">
1.748239e-02 9.149058e-03 1.577311e-03
9.149058e-03 1.748239e-02 1.577311e-03
3.576042e-02 1.909376e-02 6.720649e-03
1.909376e-02 3.576042e-02 6.720649e-03
4.327803e-02 9.944697e-03 4.233602e-03
4.727681e-02 3.894347e-02 1.805919e-02
9.944697e-03 4.327803e-02 4.233602e-03
3.894347e-02 4.727681e-02 1.805919e-02
6.231202e-02 2.064536e-02 1.260686e-02
6.780411e-02 5.113744e-02 3.381693e-02
2.064536e-02 6.231202e-02 1.260686e-02
5.113744e-02 6.780411e-02 3.381693e-02
6.903399e-02 1.070066e-02 7.231872e-03
7.532171e-02 4.198838e-02 3.083393e-02
8.139632e-02 7.306299e-02 5.754913e-02
1.070066e-02 6.903399e-02 7.231872e-03
4.198838e-02 7.532171e-02 3.083393e-02
7.306299e-02 8.139632e-02 5.754913e-02
8.876565e-02 2.209899e-02 1.909498e-02
9.643154e-02 5.476487e-02 5.107530e-02
1.037749e-01 8.710824e-02 8.655580e-02
2.209899e-02 8.876565e-02 1.909498e-02
5.476487e-02 9.643154e-02 5.107530e-02
8.710824e-02 1.037749e-01 8.655580e-02
9.473166e-02 1.139833e-02 1.049751e-02
1.031535e-01 4.482018e-02 4.468846e-02
1.112925e-01 7.795918e-02 8.306141e-02
1.189483e-01 1.106149e-01 1.243199e-01
1.139833e-02 9.473166e-02 1.049751e-02
4.482018e-02 1.031535e-01 4.468846e-02
7.795918e-02 1.112925e-01 8.306141e-02
1.106149e-01 1.189483e-01 1.243199e-01
1.150855e-01 2.341886e-02 2.600067e-02
1.247365e-01 5.806978e-02 6.928778e-02
1.339835e-01 9.231681e-02 1.168489e-01
1.425989e-01 1.259322e-01 1.669317e-01
2.341886e-02 1.150855e-01 2.600067e-02
5.806978e-02 1.247365e-01 6.928778e-02
9.231681e-02 1.339835e-01 1.168489e-01
1.259322e-01 1.425989e-01 1.669317e-01
1.203539e-01 1.202053e-02 1.393664e-02
1.307025e-01 4.736913e-02 5.918412e-02
1.407054e-01 8.237211e-02 1.094708e-01
1.501165e-01 1.167832e-01 1.629683e-01
1.587039e-01 1.503706e-01 2.175861e-01
1.202053e-02 1.203539e-01 1.393664e-02
4.736913e-02 1.307025e-01 5.918412e-02
8.237211e-02 1.407054e-01 1.094708e-01
1.167832e-01 1.501165e-01 1.629683e-01
1.503706e-01 1.587039e-01 2.175861e-01
1.412391e-01 2.457247e-02 3.310696e-02
1.526375e-01 6.097080e-02 8.783094e-02
1.635605e-01 9.689379e-02 1.473203e-01
1.737392e-01 1.320725e-01 2.092635e-01
1.829229e-01 1.662563e-01 2.711714e-01
2.457247e-02 1.412391e-01 3.310696e-02
6.097080e-02 1.526375e-01 8.783094e-02
9.689379e-02 1.635605e-01 1.473203e-01
1.320725e-01 1.737392e-01 2.092635e-01
1.662563e-01 1.829229e-01 2.711714e-01
1.458853e-01 1.255194e-02 1.744114e-02
1.579058e-01 4.957247e-02 7.382868e-02
1.695265e-01 8.619313e-02 1.358200e-01
1.804611e-01 1.221278e-01 2.010353e-01
1.904406e-01 1.571072e-01 2.668409e-01
1.992190e-01 1.908857e-01 3.306145e-01
1.255194e-02 1.458853e-01 1.744114e-02
4.957247e-02 1.579058e-01 7.382868e-02
8.619313e-02 1.695265e-01 1.358200e-01
1.221278e-01 1.804611e-01 2.010353e-01
1.571072e-01 1.904406e-01 2.668409e-01
1.908857e-01 1.992190e-01 3.306145e-01
1.671981e-01 2.553141e-02 4.017670e-02
1.800631e-01 6.339648e-02 1.060466e-01
1.923932e-01 1.007265e-01 1.768422e-01
2.038845e-01 1.372178e-01 2.497151e-01
2.142542e-01 1.725875e-01 3.216938e-01
2.232470e-01 2.065803e-01 3.899782e-01
2.553141e-02 1.671981e-01 4.017670e-02
6.339648e-02 1.800631e-01 1.060466e-01
1.007265e-01 1.923932e-01 1.768422e-01
1.372178e-01 2.038845e-01 2.497151e-01
1.725875e-01 2.142542e-01 3.216938e-01
2.065803e-01 2.232470e-01 3.899782e-01
1.713128e-01 1.297947e-02 2.089455e-02
1.847093e-01 5.137595e-02 8.810773e-02
1.976615e-01 8.932816e-02 1.611458e-01
2.098505e-01 1.265172e-01 2.371030e-01
2.209762e-01 1.626429e-01 3.128633e-01
2.307646e-01 1.974313e-01 3.854258e-01
2.389747e-01 2.306414e-01 4.521741e-01
1.297947e-02 1.713128e-01 2.089455e-02
5.137595e-02 1.847093e-01 8.810773e-02
8.932816e-02 1.976615e-01 1.611458e-01
1.265172e-01 2.098505e-01 2.371030e-01
1.626429e-01 2.209762e-01 3.128633e-01
1.974313e-01 2.307646e-01 3.854258e-01
2.306414e-01 2.389747e-01 4.521741e-01
1.929387e-01 2.627207e-02 4.696616e-02
2.069538e-01 6.528710e-02 1.232841e-01
2.203872e-01 1.037205e-01 2.043458e-01
2.329082e-01 1.412415e-01 2.868339e-01
2.442085e-01 1.775419e-01 3.673930e-01
2.540099e-01 2.123432e-01 4.429679e-01
2.620710e-01 2.454043e-01 5.110556e-01
2.627207e-02 1.929387e-01 4.696616e-02
6.528710e-02 2.069538e-01 1.232841e-01
1.037205e-01 2.203872e-01 2.043458e-01
1.412415e-01 2.329082e-01 2.868339e-01
1.775419e-01 2.442085e-01 3.673930e-01
2.123432e-01 2.540099e-01 4.429679e-01
2.454043e-01 2.620710e-01 5.110556e-01
1.966259e-01 1.329260e-02 2.417825e-02
2.110685e-01 5.273516e-02 1.015162e-01
2.250333e-01 9.169998e-02 1.845424e-01
2.381765e-01 1.298432e-01 2.698972e-01
2.501745e-01 1.668412e-01 3.540841e-01
2.607319e-01 2.023985e-01 4.338429e-01
2.695886e-01 2.362553e-01 5.064402e-01
2.765266e-01 2.681933e-01 5.698437e-01
1.329260e-02 1.966259e-01 2.417825e-02
5.273516e-02 2.110685e-01 1.015162e-01
9.169998e-02 2.250333e-01 1.845424e-01
1.298432e-01 2.381765e-01 2.698972e-01
1.668412e-01 2.501745e-01 3.540841e-01
2.023985e-01 2.607319e-01 4.338429e-01
2.362553e-01 2.695886e-01 5.064402e-01
2.681933e-01 2.765266e-01 5.698437e-01
2.184429e-01 2.677622e-02 5.323846e-02
2.332628e-01 6.659610e-02 1.389394e-01
2.474688e-01 1.058021e-01 2.288859e-01
2.607112e-01 1.440445e-01 3.194021e-01
2.726639e-01 1.809972e-01 4.068766e-01
2.830325e-01 2.163659e-01 4.881280e-01
2.915618e-01 2.498952e-01 5.606585e-01
2.980418e-01 2.813751e-01 6.227721e-01
2.677622e-02 2.184429e-01 5.323846e-02
6.659610e-02 2.332628e-01 1.389394e-01
1.058021e-01 2.474688e-01 2.288859e-01
1.440445e-01 2.607112e-01 3.194021e-01
1.809972e-01 2.726639e-01 4.068766e-01
2.163659e-01 2.830325e-01 4.881280e-01
2.498952e-01 2.915618e-01 5.606585e-01
2.813751e-01 2.980418e-01 6.227721e-01
2.218169e-01 1.348362e-02 2.717787e-02
2.369500e-01 5.361663e-02 1.135872e-01
2.515835e-01 9.325021e-02 2.052145e-01
2.653573e-01 1.320240e-01 2.983590e-01
2.779322e-01 1.695989e-01 3.892767e-01
2.889985e-01 2.056652e-01 4.745820e-01
2.982838e-01 2.399505e-01 5.515419e-01
3.055594e-01 2.722261e-01 6.182338e-01
3.106461e-01 3.023128e-01 6.735633e-01
1.348362e-02 2.218169e-01 2.717787e-02
5.361663e-02 2.369500e-01 1.135872e-01
9.325021e-02 2.515835e-01 2.052145e-01
1.320240e-01 2.653573e-01 2.983590e-01
1.695989e-01 2.779322e-01 3.892767e-01
2.056652e-01 2.889985e-01 4.745820e-01
2.399505e-01 2.982838e-01 5.515419e-01
2.722261e-01 3.055594e-01 6.182338e-01
3.023128e-01 3.106461e-01 6.735633e-01
2.436981e-01 2.703143e-02 5.877631e-02
2.589579e-01 6.729127e-02 1.524874e-01
2.735868e-01 1.069201e-01 2.496895e-01
2.872245e-01 1.455578e-01 3.464889e-01
2.995352e-01 1.828686e-01 4.391629e-01
3.102158e-01 2.185492e-01 5.245313e-01
3.190033e-01 2.523367e-01 6.001979e-01
3.256814e-01 2.840147e-01 6.646417e-01
3.300855e-01 3.134188e-01 7.171718e-01
2.703143e-02 2.436981e-01 5.877631e-02
6.729127e-02 2.589579e-01 1.524874e-01
1.069201e-01 2.735868e-01 2.496895e-01
1.455578e-01 2.872245e-01 3.464889e-01
1.828686e-01 2.995352e-01 4.391629e-01
2.185492e-01 3.102158e-01 5.245313e-01
2.523367e-01 3.190033e-01 6.001979e-01
2.840147e-01 3.256814e-01 6.646417e-01
3.134188e-01 3.300855e-01 7.171718e-01
2.468811e-01 1.354782e-02 2.978916e-02
2.623320e-01 5.399867e-02 1.239165e-01
2.772740e-01 9.394067e-02 2.225157e-01
2.913392e-01 1.330059e-01 3.216875e-01
3.041814e-01 1.708480e-01 4.175905e-01
3.154842e-01 2.071508e-01 5.068467e-01
3.249693e-01 2.416360e-01 5.868252e-01
3.324033e-01 2.740700e-01 6.557743e-01
3.376031e-01 3.042697e-01 7.128088e-01
3.404406e-01 3.321072e-01 7.577858e-01
1.354782e-02 2.468811e-01 2.978916e-02
5.399867e-02 2.623320e-01 1.239165e-01
9.394067e-02 2.772740e-01 2.225157e-01
1.330059e-01 2.913392e-01 3.216875e-01
1.708480e-01 3.041814e-01 4.175905e-01
2.071508e-01 3.154842e-01 5.068467e-01
2.416360e-01 3.249693e-01 5.868252e-01
2.740700e-01 3.324033e-01 6.557743e-01
3.042697e-01 3.376031e-01 7.128088e-01
3.321072e-01 3.404406e-01 7.577858e-01
2.686981e-01 2.703143e-02 6.339301e-02
2.840221e-01 6.735546e-02 1.635063e-01
2.987136e-01 1.070470e-01 2.661836e-01
3.124108e-01 1.457441e-01 3.674703e-01
3.247764e-01 1.831098e-01 4.636777e-01
3.355060e-01 2.188393e-01 5.517405e-01
3.443353e-01 2.526687e-01 6.294351e-01
3.510470e-01 2.843803e-01 6.954421e-01
3.554758e-01 3.138091e-01 7.492753e-01
3.575126e-01 3.408459e-01 7.911172e-01
2.703143e-02 2.686981e-01 6.339301e-02
6.735546e-02 2.840221e-01 1.635063e-01
1.070470e-01 2.987136e-01 2.661836e-01
1.457441e-01 3.124108e-01 3.674703e-01
1.831098e-01 3.247764e-01 4.636777e-01
2.188393e-01 3.355060e-01 5.517405e-01
2.526687e-01 3.443353e-01 6.294351e-01
2.843803e-01 3.510470e-01 6.954421e-01
3.138091e-01 3.554758e-01 7.492753e-01
3.408459e-01 3.575126e-01 7.911172e-01
2.718169e-01 1.348362e-02 3.192334e-02
2.872052e-01 5.387185e-02 1.321815e-01
3.020877e-01 9.375435e-02 2.359717e-01
3.160980e-01 1.327647e-01 3.393557e-01
3.288912e-01 1.705578e-01 4.385444e-01
3.401522e-01 2.068188e-01 5.302881e-01
3.496037e-01 2.412703e-01 6.121349e-01
3.570130e-01 2.736797e-01 6.825354e-01
3.621977e-01 3.038644e-01 7.408048e-01
3.650302e-01 3.316968e-01 7.869788e-01
3.654406e-01 3.571072e-01 8.216139e-01
1.348362e-02 2.718169e-01 3.192334e-02
5.387185e-02 2.872052e-01 1.321815e-01
9.375435e-02 3.020877e-01 2.359717e-01
1.327647e-01 3.160980e-01 3.393557e-01
1.705578e-01 3.288912e-01 4.385444e-01
2.068188e-01 3.401522e-01 5.302881e-01
2.412703e-01 3.496037e-01 6.121349e-01
2.736797e-01 3.570130e-01 6.825354e-01
3.038644e-01 3.621977e-01 7.408048e-01
3.316968e-01 3.650302e-01 7.869788e-01
3.571072e-01 3.654406e-01 8.216139e-01
2.934429e-01 2.677622e-02 6.694133e-02
3.084538e-01 6.678712e-02 1.716936e-01
3.228461e-01 1.061795e-01 2.780065e-01
3.362656e-01 1.445989e-01 3.820216e-01
3.483816e-01 1.817149e-01 4.802165e-01
3.588960e-01 2.172293e-01 5.697322e-01
3.675497e-01 2.508830e-01 6.485605e-01
3.741298e-01 2.824631e-01 7.155825e-01
[...]
         <PointData Scalars="count">
            <DataArray type="Float64" Name="solution" format="ascii">
1.577311e-03 1.577311e-03 6.720649e-03 6.720649e-03 4.233602e-03 1.805919e-02 4.233602e-03 1.805919e-02 1.260686e-02 3.381693e-02 1.260686e-02 3.381693e-02 7.231872e-03 3.083393e-02 5.754913e-02 7.231872e-03 3.083393e-02 5.754913e-02 1.909498e-02 5.107530e-02 8.655580e-02 1.909498e-02 5.107530e-02 8.655580e-02 1.049751e-02 4.468846e-02 8.306141e-02 1.243199e-01 1.049751e-02 4.468846e-02 8.306141e-02 1.243199e-01 2.600067e-02 6.928778e-02 1.168489e-01 1.669317e-01 2.600067e-02 6.928778e-02 1.168489e-01 1.669317e-01 1.393664e-02 5.918412e-02 1.094708e-01 1.629683e-01 2.175861e-01 1.393664e-02 5.918412e-02 1.094708e-01 1.629683e-01 2.175861e-01 3.310696e-02 8.783094e-02 1.473203e-01 2.092635e-01 2.711714e-01 3.310696e-02 8.783094e-02 1.473203e-01 2.092635e-01 2.711714e-01 1.744114e-02 7.382868e-02 1.358200e-01 2.010353e-01 2.668409e-01 3.306145e-01 1.744114e-02 7.382868e-02 1.358200e-01 2.010353e-01 2.668409e-01 3.306145e-01 4.017670e-02 1.060466e-01 1.768422e-01 2.497151e-01 3.216938e-01 3.899782e-01 4.017670e-02 1.060466e-01 1.768422e-01 2.497151e-01 3.216938e-01 3.899782e-01 2.089455e-02 8.810773e-02 1.611458e-01 2.371030e-01 3.128633e-01 3.854258e-01 4.521741e-01 2.089455e-02 8.810773e-02 1.611458e-01 2.371030e-01 3.128633e-01 3.854258e-01 4.521741e-01 4.696616e-02 1.232841e-01 2.043458e-01 2.868339e-01 3.673930e-01 4.429679e-01 5.110556e-01 4.696616e-02 1.232841e-01 2.043458e-01 2.868339e-01 3.673930e-01 4.429679e-01 5.110556e-01 2.417825e-02 1.015162e-01 1.845424e-01 2.698972e-01 3.540841e-01 4.338429e-01 5.064402e-01 5.698437e-01 2.417825e-02 1.015162e-01 1.845424e-01 2.698972e-01 3.540841e-01 4.338429e-01 5.064402e-01 5.698437e-01 5.323846e-02 1.389394e-01 2.288859e-01 3.194021e-01 4.068766e-01 4.881280e-01 5.606585e-01 6.227721e-01 5.323846e-02 1.389394e-01 2.288859e-01 3.194021e-01 4.068766e-01 4.881280e-01 5.606585e-01 6.227721e-01 2.717787e-02 1.135872e-01 2.052145e-01 2.983590e-01 3.892767e-01 4.745820e-01 5.515419e-01 6.182338e-01 6.735633e-01 2.717787e-02 1.135872e-01 2.052145e-01 2.983590e-01 3.892767e-01 4.745820e-01 5.515419e-01 6.182338e-01 6.735633e-01 5.877631e-02 1.524874e-01 2.496895e-01 3.464889e-01 4.391629e-01 5.245313e-01 6.001979e-01 6.646417e-01 7.171718e-01 5.877631e-02 1.524874e-01 2.496895e-01 3.464889e-01 4.391629e-01 5.245313e-01 6.001979e-01 6.646417e-01 7.171718e-01 2.978916e-02 1.239165e-01 2.225157e-01 3.216875e-01 4.175905e-01 5.068467e-01 5.868252e-01 6.557743e-01 7.128088e-01 7.577858e-01 2.978916e-02 1.239165e-01 2.225157e-01 3.216875e-01 4.175905e-01 5.068467e-01 5.868252e-01 6.557743e-01 7.128088e-01 7.577858e-01 6.339301e-02 1.635063e-01 2.661836e-01 3.674703e-01 4.636777e-01 5.517405e-01 6.294351e-01 6.954421e-01 7.492753e-01 7.911172e-01 6.339301e-02 1.635063e-01 2.661836e-01 3.674703e-01 4.636777e-01 5.517405e-01 6.294351e-01 6.954421e-01 7.492753e-01 7.911172e-01 3.192334e-02 1.321815e-01 2.359717e-01 3.393557e-01 4.385444e-01 5.302881e-01 6.121349e-01 6.825354e-01 7.408048e-01 7.869788e-01 8.216139e-01 3.192334e-02 1.321815e-01 2.359717e-01 3.393557e-01 4.385444e-01 5.302881e-01 6.121349e-01 6.825354e-01 7.408048e-01 7.869788e-01 8.216139e-01 6.694133e-02 1.716936e-01 2.780065e-01 3.820216e-01 4.802165e-01 5.697322e-01 6.485605e-01 7.155825e-01 7.704808e-01 8.135678e-01 8.455799e-01 6.694133e-02 1.716936e-01 2.780065e-01 3.820216e-01 4.802165e-01 5.697322e-01 6.485605e-01 7.155825e-01 7.704808e-01 8.135678e-01 8.455799e-01 3.351147e-02 1.381529e-01 2.452905e-01 3.511036e-01 4.519926e-01 5.449342e-01 6.277056e-01 6.989640e-01 7.581921e-01 8.055491e-01 8.416729e-01 8.674787e-01 3.351147e-02 1.381529e-01 2.452905e-01 3.511036e-01 4.519926e-01 5.449342e-01 6.277056e-01 6.989640e-01 7.581921e-01 8.055491e-01 8.416729e-01 8.674787e-01 6.931982e-02 1.768725e-01 2.850034e-01 3.900908e-01 4.888879e-01 5.788062e-01 6.580708e-01 7.257408e-01 7.816166e-01 8.260759e-01 8.598795e-01 8.839866e-01 6.931982e-02 1.768725e-01 2.850034e-01 3.900908e-01 4.888879e-01 5.788062e-01 6.580708e-01 7.257408e-01 7.816166e-01 8.260759e-01 8.598795e-01 8.839866e-01 3.450757e-02 1.417016e-01 2.503585e-01 3.569152e-01 4.580741e-01 5.511086e-01 6.340502e-01 7.057465e-01 7.658014e-01 8.144342e-01 8.522971e-01 8.802907e-01 8.994064e-01 3.450757e-02 1.417016e-01 2.503585e-01 3.569152e-01 4.580741e-01 5.511086e-01 6.340502e-01 7.057465e-01 7.658014e-01 8.144342e-01 8.522971e-01 8.802907e-01 8.994064e-01 7.047646e-02 1.789921e-01 2.872107e-01 3.918607e-01 4.900495e-01 5.794971e-01 6.586600e-01 7.267403e-01 7.836011e-01 8.296196e-01 8.655177e-01 8.921982e-01 9.106126e-01 7.047646e-02 1.789921e-01 2.872107e-01 3.918607e-01 4.900495e-01 5.794971e-01 6.586600e-01 7.267403e-01 7.836011e-01 8.296196e-01 8.655177e-01 8.921982e-01 9.106126e-01 3.489061e-02 1.427986e-01 2.512287e-01 3.569868e-01 4.571573e-01 5.493529e-01 6.318641e-01 7.037009e-01 7.645382e-01 8.145937e-01 8.544707e-01 8.849987e-01 9.070962e-01 9.216688e-01 3.489061e-02 1.427986e-01 2.512287e-01 3.569868e-01 4.571573e-01 5.493529e-01 6.318641e-01 7.037009e-01 7.645382e-01 8.145937e-01 8.544707e-01 8.849987e-01 9.070962e-01 9.216688e-01 7.040964e-02 1.781203e-01 2.848340e-01 3.877075e-01 4.842490e-01 5.725013e-01 6.511373e-01 7.194652e-01 7.773583e-01 8.251367e-01 8.634267e-01 8.930258e-01 9.147889e-01 9.295472e-01 7.040964e-02 1.781203e-01 2.848340e-01 3.877075e-01 4.842490e-01 5.725013e-01 6.511373e-01 7.194652e-01 7.773583e-01 8.251367e-01 8.634267e-01 8.930258e-01 9.147889e-01 9.295472e-01 3.466508e-02 1.415106e-01 2.481027e-01 3.516911e-01 4.497882e-01 5.403628e-01 6.219544e-01 6.937046e-01 7.553140e-01 8.069456e-01 8.491004e-01 8.824876e-01 9.079113e-01 9.261821e-01 9.380608e-01 3.466508e-02 1.415106e-01 2.481027e-01 3.516911e-01 4.497882e-01 5.403628e-01 6.219544e-01 6.937046e-01 7.553140e-01 8.069456e-01 8.491004e-01 8.824876e-01 9.079113e-01 9.261821e-01 9.380608e-01 6.916661e-02 1.744327e-01 2.782223e-01 3.781608e-01 4.721739e-01 5.586230e-01 6.363763e-01 7.048149e-01 7.637821e-01 8.134957e-01 8.544423e-01 8.872715e-01 9.127043e-01 9.314639e-01 9.442308e-01 6.916661e-02 1.744327e-01 2.782223e-01 3.781608e-01 4.721739e-01 5.586230e-01 6.363763e-01 7.048149e-01 7.637821e-01 8.134957e-01 8.544423e-01 8.872715e-01 9.127043e-01 9.314639e-01 9.442308e-01 3.386028e-02 1.379913e-01 2.413089e-01 3.415421e-01 4.366456e-01 5.249401e-01 6.051960e-01 6.766586e-01 7.390196e-01 7.923492e-01 8.370054e-01 8.735373e-01 9.025962e-01 9.248640e-01 9.410018e-01 9.516209e-01 3.386028e-02 1.379913e-01 2.413089e-01 3.415421e-01 4.366456e-01 5.249401e-01 6.051960e-01 6.766586e-01 7.390196e-01 7.923492e-01 8.370054e-01 8.735373e-01 9.025962e-01 9.248640e-01 9.410018e-01 9.516209e-01 6.683973e-02 1.681980e-01 2.678408e-01 3.638680e-01 4.546137e-01 5.387404e-01 6.152903e-01 6.836931e-01 7.437361e-01 7.955067e-01 8.393201e-01 8.756440e-01 9.050302e-01 9.280583e-01 9.452953e-01 9.572704e-01 6.683973e-02 1.681980e-01 2.678408e-01 3.638680e-01 4.546137e-01 5.387404e-01 6.152903e-01 6.836931e-01 7.437361e-01 7.955067e-01 8.393201e-01 8.756440e-01 9.050302e-01 9.280583e-01 9.452953e-01 9.572704e-01 3.252842e-02 1.324706e-01 2.312792e-01 3.271632e-01 4.185065e-01 5.039621e-01 5.825104e-01 6.534796e-01 7.165320e-01 7.716230e-01 8.189424e-01 8.588495e-01 8.918095e-01 9.183387e-01 9.389618e-01 9.541820e-01 9.644634e-01 3.252842e-02 1.324706e-01 2.312792e-01 3.271632e-01 4.185065e-01 5.039621e-01 5.825104e-01 6.534796e-01 7.165320e-01 7.716230e-01 8.189424e-01 8.588495e-01 8.918095e-01 9.183387e-01 9.389618e-01 9.541820e-01 9.644634e-01 6.356080e-02 1.597617e-01 2.542456e-01 3.455639e-01 4.324316e-01 5.137869e-01 5.888271e-01 6.570176e-01 7.180790e-01 7.719564e-01 8.187762e-01 8.587995e-01 8.923759e-01 9.199025e-01 9.417903e-01 9.584395e-01 9.702228e-01 6.356080e-02 1.597617e-01 2.542456e-01 3.455639e-01 4.324316e-01 5.137869e-01 5.888271e-01 6.570176e-01 7.180790e-01 7.719564e-01 8.187762e-01 8.587995e-01 8.923759e-01 9.199025e-01 9.417903e-01 9.584395e-01 9.702228e-01 3.074165e-02 1.252408e-01 2.185261e-01 3.092587e-01 3.962188e-01 4.783626e-01 5.548597e-01 6.251095e-01 6.887386e-01 7.455815e-01 7.956496e-01 8.390937e-01 8.761647e-01 9.071761e-01 9.324724e-01 9.524028e-01 9.673014e-01 9.774743e-01 3.074165e-02 1.252408e-01 2.185261e-01 3.092587e-01 3.962188e-01 4.783626e-01 5.548597e-01 6.251095e-01 6.887386e-01 7.455815e-01 7.956496e-01 8.390937e-01 8.761647e-01 9.071761e-01 9.324724e-01 9.524028e-01 9.673014e-01 9.774743e-01 5.949391e-02 1.495283e-01 2.380590e-01 3.240455e-01 4.065443e-01 4.847413e-01 5.579741e-01 6.257407e-01 6.876987e-01 7.436530e-01 7.935373e-01 8.373906e-01 8.753319e-01 9.075353e-01 9.342071e-01 9.555662e-01 9.718276e-01 9.831897e-01 5.949391e-02 1.495283e-01 2.380590e-01 3.240455e-01 4.065443e-01 4.847413e-01 5.579741e-01 6.257407e-01 6.876987e-01 7.436530e-01 7.935373e-01 8.373906e-01 8.753319e-01 9.075353e-01 9.342071e-01 9.555662e-01 9.718276e-01 9.831897e-01 2.858811e-02 1.166420e-01 2.036202e-01 2.885890e-01 3.706803e-01 4.491199e-01 5.232483e-01 5.925321e-01 6.565679e-01 7.150771e-01 7.678955e-01 8.149574e-01 8.562772e-01 8.919302e-01 9.220331e-01 9.467271e-01 9.661620e-01 9.804840e-01 9.898246e-01 2.858811e-02 1.166420e-01 2.036202e-01 2.885890e-01 3.706803e-01 4.491199e-01 5.232483e-01 5.925321e-01 6.565679e-01 7.150771e-01 7.678955e-01 8.149574e-01 8.562772e-01 8.919302e-01 9.220331e-01 9.467271e-01 9.661620e-01 9.804840e-01 9.898246e-01 5.482705e-02 1.379439e-01 2.199465e-01 3.001494e-01 3.779060e-01 4.526218e-01 5.237638e-01 5.908681e-01 6.535423e-01 7.114655e-01 7.643852e-01 8.121117e-01 8.545108e-01 8.914950e-01 9.230146e-01 9.490488e-01 9.695973e-01 9.846726e-01 9.942937e-01 5.482705e-02 1.379439e-01 2.199465e-01 3.001494e-01 3.779060e-01 4.526218e-01 5.237638e-01 5.908681e-01 6.535423e-01 7.114655e-01 7.643852e-01 8.121117e-01 8.545108e-01 8.914950e-01 9.230146e-01 9.490488e-01 9.695973e-01 9.846726e-01 9.942937e-01 2.616734e-02 1.070470e-01 1.871691e-01 2.659490e-01 3.428210e-01 4.172469e-01 4.887227e-01 5.567846e-01 6.210124e-01 6.810324e-01 7.365174e-01 7.871866e-01 8.328033e-01 8.731721e-01 9.081352e-01 9.375686e-01 9.613779e-01 9.794942e-01 9.918712e-01 9.984812e-01 2.616734e-02 1.070470e-01 1.871691e-01 2.659490e-01 3.428210e-01 4.172469e-01 4.887227e-01 5.567846e-01 6.210124e-01 6.810324e-01 7.365174e-01 7.871866e-01 8.328033e-01 8.731721e-01 9.081352e-01 9.375686e-01 9.613779e-01 9.794942e-01 9.918712e-01 9.984812e-01 4.976300e-02 1.254778e-01 2.005962e-01 2.747323e-01 3.474928e-01 4.184766e-01 4.872737e-01 5.534670e-01 6.166334e-01 6.763473e-01 7.321847e-01 7.837287e-01 8.305758e-01 8.723431e-01 9.086756e-01 9.392545e-01 9.638044e-01 9.821002e-01 9.939729e-01 9.993141e-01 4.976300e-02 1.254778e-01 2.005962e-01 2.747323e-01 3.474928e-01 4.184766e-01 4.872737e-01 5.534670e-01 6.166334e-01 6.763473e-01 7.321847e-01 7.837287e-01 8.305758e-01 8.723431e-01 9.086756e-01 9.392545e-01 9.638044e-01 9.821002e-01 9.939729e-01 9.993141e-01 2.358524e-02 9.684537e-02 1.697965e-01 2.421467e-01 3.135852e-01 3.837785e-01 4.523664e-01 5.189591e-01 5.831378e-01 6.444555e-01 7.024418e-01 7.566093e-01 8.064628e-01 8.515106e-01 8.912775e-01 9.253196e-01 9.532389e-01 9.746971e-01 9.894294e-01 9.972537e-01 9.980790e-01 2.358524e-02 9.684537e-02 1.697965e-01 2.421467e-01 3.135852e-01 3.837785e-01 4.523664e-01 5.189591e-01 5.831378e-01 6.444555e-01 7.024418e-01 7.566093e-01 8.064628e-01 8.515106e-01 8.912775e-01 9.253196e-01 9.532389e-01 9.746971e-01 9.894294e-01 9.972537e-01 9.980790e-01 4.450972e-02 1.126046e-01 1.806974e-01 2.486503e-01 3.162849e-01 3.833705e-01 4.496155e-01 5.146595e-01 5.780693e-01 6.393380e-01 6.978893e-01 7.530869e-01 8.042495e-01 8.506723e-01 8.916530e-01 9.265218e-01 9.546735e-01 9.755987e-01 9.889123e-01 9.943750e-01 9.919081e-01 4.450972e-02 1.126046e-01 1.806974e-01 2.486503e-01 3.162849e-01 3.833705e-01 4.496155e-01 5.146595e-01 5.780693e-01 6.393380e-01 6.978893e-01 7.530869e-01 8.042495e-01 8.506723e-01 8.916530e-01 9.265218e-01 9.546735e-01 9.755987e-01 9.889123e-01 9.943750e-01 9.919081e-01 2.094867e-02 8.642737e-02 1.521226e-01 2.179831e-01 2.839125e-01 3.497553e-01 4.152844e-01 4.801903e-01 5.440718e-01 6.064324e-01 6.666800e-01 7.241342e-01 7.780409e-01 8.275944e-01 8.719683e-01 9.103517e-01 9.419908e-01 9.662312e-01 9.825574e-01 9.906257e-01 9.902871e-01 9.815972e-01 2.094867e-02 8.642737e-02 1.521226e-01 2.179831e-01 2.839125e-01 3.497553e-01 4.152844e-01 4.801903e-01 5.440718e-01 6.064324e-01 6.666800e-01 7.241342e-01 7.780409e-01 8.275944e-01 8.719683e-01 9.103517e-01 9.419908e-01 9.662312e-01 9.825574e-01 9.906257e-01 9.902871e-01 9.815972e-01 3.927067e-02 9.978692e-02 1.609204e-01 2.227388e-01 2.852460e-01 3.483636e-01 4.119133e-01 4.756001e-01 5.389983e-01 6.015418e-01 6.625221e-01 7.210952e-01 7.763016e-01 8.270977e-01 8.724026e-01 9.111547e-01 9.423761e-01 9.652395e-01 9.791281e-01 9.836840e-01 9.788372e-01 9.648117e-01 3.927067e-02 9.978692e-02 1.609204e-01 2.227388e-01 2.852460e-01 3.483636e-01 4.119133e-01 4.756001e-01 5.389983e-01 6.015418e-01 6.625221e-01 7.210952e-01 7.763016e-01 8.270977e-01 8.724026e-01 9.111547e-01 9.423761e-01 9.652395e-01 9.791281e-01 9.836840e-01 9.788372e-01 9.648117e-01 1.836017e-02 7.616863e-02 1.347431e-01 1.942310e-01 2.547161e-01 3.161996e-01 3.785788e-01 4.416272e-01 5.049759e-01 5.680979e-01 6.303005e-01 6.907260e-01 7.483671e-01 8.020962e-01 8.507127e-01 8.930058e-01 9.278283e-01 9.541770e-01 9.712691e-01 9.786071e-01 9.760216e-01 9.636871e-01 9.421074e-01 1.836017e-02 7.616863e-02 1.347431e-01 1.942310e-01 2.547161e-01 3.161996e-01 3.785788e-01 4.416272e-01 5.049759e-01 5.680979e-01 6.303005e-01 6.907260e-01 7.483671e-01 8.020962e-01 8.507127e-01 8.930058e-01 9.278283e-01 9.541770e-01 9.712691e-01 9.786071e-01 9.760216e-01 9.636871e-01 9.421074e-01 3.423529e-02 8.745726e-02 1.418954e-01 1.977887e-01 2.552983e-01 3.144823e-01 3.752706e-01 4.374381e-01 5.005788e-01 5.640849e-01 6.271338e-01 6.886884e-01 7.475159e-01 8.022291e-01 8.513521e-01 8.934078e-01 9.270223e-01 9.510354e-01 9.646027e-01 9.672767e-01 9.590519e-01 9.403688e-01 9.120730e-01 3.423529e-02 8.745726e-02 1.418954e-01 1.977887e-01 2.552983e-01 3.144823e-01 3.752706e-01 4.374381e-01 5.005788e-01 5.640849e-01 6.271338e-01 6.886884e-01 7.475159e-01 8.022291e-01 8.513521e-01 8.934078e-01 9.270223e-01 9.510354e-01 9.646027e-01 9.672767e-01 9.590519e-01 9.403688e-01 9.120730e-01 1.591283e-02 6.641456e-02 1.182101e-01 1.716115e-01 2.268572e-01 2.840870e-01 3.433138e-01 4.043948e-01 4.670004e-01 5.305879e-01 5.943804e-01 6.573593e-01 7.182738e-01 7.756764e-01 8.279848e-01 8.735726e-01 9.108823e-01 9.385511e-01 9.555336e-01 9.612049e-01 9.554266e-01 9.385656e-01 9.114597e-01 8.753367e-01 1.591283e-02 6.641456e-02 1.182101e-01 1.716115e-01 2.268572e-01 2.840870e-01 3.433138e-01 4.043948e-01 4.670004e-01 5.305879e-01 5.943804e-01 6.573593e-01 7.182738e-01 7.756764e-01 8.279848e-01 8.735726e-01 9.108823e-01 9.385511e-01 9.555336e-01 9.612049e-01 9.554266e-01 9.385656e-01 9.114597e-01 8.753367e-01 2.957016e-02 7.600114e-02 1.241903e-01 1.745216e-01 2.272928e-01 2.826850e-01 3.407292e-01 4.012692e-01 4.639247e-01 5.280573e-01 5.927442e-01 6.567695e-01 7.186391e-01 7.766285e-01 8.288681e-01 8.734640e-01 9.086477e-01 9.329367e-01 9.452863e-01 9.452053e-01 9.328184e-01 9.088591e-01 8.745953e-01 8.316973e-01 2.957016e-02 7.600114e-02 1.241903e-01 1.745216e-01 2.272928e-01 2.826850e-01 3.407292e-01 4.012692e-01 4.639247e-01 5.280573e-01 5.927442e-01 6.567695e-01 7.186391e-01 7.766285e-01 8.288681e-01 8.734640e-01 9.086477e-01 9.329367e-01 9.452863e-01 9.452053e-01 9.328184e-01 9.088591e-01 8.745953e-01 8.316973e-01 1.368566e-02 5.746561e-02 1.030102e-01 1.507695e-01 2.011155e-01 2.543112e-01 3.104753e-01 3.695437e-01 4.312284e-01 4.949776e-01 5.599420e-01 6.249553e-01 6.885378e-01 7.489335e-01 8.041870e-01 8.522631e-01 8.912028e-01 9.192999e-01 9.352760e-01 9.384251e-01 9.287028e-01 9.067409e-01 8.737834e-01 8.315531e-01 7.820708e-01 1.368566e-02 5.746561e-02 1.030102e-01 1.507695e-01 2.011155e-01 2.543112e-01 3.104753e-01 3.695437e-01 4.312284e-01 4.949776e-01 5.599420e-01 6.249553e-01 6.885378e-01 7.489335e-01 8.041870e-01 8.522631e-01 8.912028e-01 9.192999e-01 9.352760e-01 9.384251e-01 9.287028e-01 9.067409e-01 8.737834e-01 8.315531e-01 7.820708e-01 2.541093e-02 6.574027e-02 1.082882e-01 1.535611e-01 2.019755e-01 2.538215e-01 3.092204e-01 3.680792e-01 4.300420e-01 4.944434e-01 5.602701e-01 6.261406e-01 6.903164e-01 7.507548e-01 8.052135e-01 8.514061e-01 8.871995e-01 9.108292e-01 9.211003e-01 9.175408e-01 9.004729e-01 8.709882e-01 8.308268e-01 7.821809e-01 7.274577e-01 2.541093e-02 6.574027e-02 1.082882e-01 1.535611e-01 2.019755e-01 2.538215e-01 3.092204e-01 3.680792e-01 4.300420e-01 4.944434e-01 5.602701e-01 6.261406e-01 6.903164e-01 7.507548e-01 8.052135e-01 8.514061e-01 8.871995e-01 9.108292e-01 9.211003e-01 9.175408e-01 9.004729e-01 8.709882e-01 8.308268e-01 7.821809e-01 7.274577e-01 1.173966e-02 4.956346e-02 8.954428e-02 1.322465e-01 1.781563e-01 2.276442e-01 2.809221e-01 3.379955e-01 3.986125e-01 4.622121e-01 5.278782e-01 5.943084e-01 6.598108e-01 7.223425e-01 7.796013e-01 8.291747e-01 8.687399e-01 8.962939e-01 9.103809e-01 9.102780e-01 8.961019e-01 8.688120e-01 8.301052e-01 7.822191e-01 7.276806e-01 6.690424e-01 1.173966e-02 4.956346e-02 8.954428e-02 1.322465e-01 1.781563e-01 2.276442e-01 2.809221e-01 3.379955e-01 3.986125e-01 4.622121e-01 5.278782e-01 5.943084e-01 6.598108e-01 7.223425e-01 7.796013e-01 8.291747e-01 8.687399e-01 8.962939e-01 9.103809e-01 9.102780e-01 8.961019e-01 8.688120e-01 8.301052e-01 7.822191e-01 7.276806e-01 6.690424e-01 2.185561e-02 5.691683e-02 9.456376e-02 1.354025e-01 1.799494e-01 2.285865e-01 2.815112e-01 3.386816e-01 3.997583e-01 4.640465e-01 5.304466e-01 5.974247e-01 6.630197e-01 7.249026e-01 7.805003e-01 8.271859e-01 8.625228e-01 8.845328e-01 8.919444e-01 8.843757e-01 8.624081e-01 8.275334e-01 7.819771e-01 7.284322e-01 6.697508e-01 6.086511e-01 2.185561e-02 5.691683e-02 9.456376e-02 1.354025e-01 1.799494e-01 2.285865e-01 2.815112e-01 3.386816e-01 3.997583e-01 4.640465e-01 5.304466e-01 5.974247e-01 6.630197e-01 7.249026e-01 7.805003e-01 8.271859e-01 8.625228e-01 8.845328e-01 8.919444e-01 8.843757e-01 8.624081e-01 8.275334e-01 7.819771e-01 7.284322e-01 6.697508e-01 6.086511e-01 1.011475e-02 4.287867e-02 7.810619e-02 1.164513e-01 1.584934e-01 2.046916e-01 2.553339e-01 3.104808e-01 3.699050e-01 4.330301e-01 4.988732e-01 5.660053e-01 6.325426e-01 6.961874e-01 7.543355e-01 8.042541e-01 8.433251e-01 8.693243e-01 8.806983e-01 8.767831e-01 8.579198e-01 8.254370e-01 7.814951e-01 7.288223e-01 6.703912e-01 6.090958e-01 5.474829e-01 1.011475e-02 4.287867e-02 7.810619e-02 1.164513e-01 1.584934e-01 2.046916e-01 2.553339e-01 3.104808e-01 3.699050e-01 4.330301e-01 4.988732e-01 5.660053e-01 6.325426e-01 6.961874e-01 7.543355e-01 8.042541e-01 8.433251e-01 8.693243e-01 8.806983e-01 8.767831e-01 8.579198e-01 8.254370e-01 7.814951e-01 7.288223e-01 6.703912e-01 6.090958e-01 5.474829e-01 1.895949e-02 4.967951e-02 8.325965e-02 1.203798e-01 1.616323e-01 2.074696e-01 2.581452e-01 3.136506e-01 3.736490e-01 4.374087e-01 5.037447e-01 5.709841e-01 6.369720e-01 6.991385e-01 7.546429e-01 8.005967e-01 8.343502e-01 8.538060e-01 8.577050e-01 8.458274e-01 8.190589e-01 7.793008e-01 7.292344e-01 6.719856e-01 6.107544e-01 5.484768e-01 4.875737e-01 1.895949e-02 4.967951e-02 8.325965e-02 1.203798e-01 1.616323e-01 2.074696e-01 2.581452e-01 3.136506e-01 3.736490e-01 4.374087e-01 5.037447e-01 5.709841e-01 6.369720e-01 6.991385e-01 7.546429e-01 8.005967e-01 8.343502e-01 8.538060e-01 8.577050e-01 8.458274e-01 8.190589e-01 7.793008e-01 7.292344e-01 6.719856e-01 6.107544e-01 5.484768e-01 4.875737e-01 8.827783e-03 3.750059e-02 6.886328e-02 1.036310e-01 1.424499e-01 1.858434e-01 2.341529e-01 2.874733e-01 3.455852e-01 4.078846e-01 4.733194e-01 5.403429e-01 6.069041e-01 6.704947e-01 7.282720e-01 7.772655e-01 8.146575e-01 8.381051e-01 8.4